<?xml version="1.0"?>
<VTKFile type="UnstructuredGrid" version="0.1" byte_order="LittleEndian">
  <UnstructuredGrid>
    <FieldData>
      <DataArray type="Float32" Name="TIME"  NumberOfTuples="1" format="ascii"> 6.0999999999 </DataArray>
      <DataArray type="Int32"   Name="STEP"  NumberOfTuples="1" format="ascii"> 610000 </DataArray>
    </FieldData>
    <Piece NumberOfPoints="399" NumberOfCells="399">
      <Points>
        <DataArray type="Float32" NumberOfComponents="3" format="ascii">
 0.4248652802 0.2068255429 0.0759430974 0.5299832407 0.1286329021 0.0400907963 0.5050734088 0.1472907597 0.1825917911 0.6403307817 0.1082663933 0.1124597244 0.5396124825 0.3646967421 0.2040009170 0.5528625805 0.3591025366 0.2072268881 0.5678908786 0.4472844748 0.1939272113 0.7522015553 0.1787391990 0.1457377554 0.7585133339 0.1855917100 0.1501548103 0.6781371233 0.4551491303 0.1694662087 0.8496088751 0.2321594071 0.1150671488 0.7816290754 0.3733979953 0.0369727167 0.7953317130 0.3703150221 0.0373492445 0.8168259451 0.3857437996 0.0431750234 0.8042876309 0.3963507309 0.2240357755 0.8177014499 0.3880444477 0.2261942414 0.8970056857 0.3686631111 0.1723159408 0.7489580738 0.3245513472 0.6726909729 0.7715940950 0.2992916123 0.6582654756 0.7860265694 0.3638990614 0.5621534816 0.8677399674 0.6052370602 0.5111382420 0.9118156803 0.5556473991 0.5587200536 0.8933347191 0.6065761881 0.4947006151 0.9262233881 0.5446446544 0.5458338474 0.9417329008 0.3093604814 0.5254685678 0.9349242044 0.3343188798 0.5344051237 0.9466582683 0.4740598306 0.4508201289 0.2426832061 0.7997987193 0.0414070078 0.2550043752 0.8173396389 0.0914574534 0.0745409714 0.9091237972 0.1097906293 0.1543237940 0.7223197874 0.0815085414 0.0388483872 0.8885769011 0.1662307899 0.0554835331 0.8047840755 0.1553463739 0.0622456723 0.7985059727 0.1588806516 0.1716660362 0.7198413537 0.1453822923 0.1846706101 0.8263779580 0.1958310165 0.5696633771 0.7614166670 0.2455277457 0.6836965996 0.7584636864 0.2617672678 0.6518277592 0.7389199902 0.1620810426 0.7064507547 0.8129151420 0.2796415256 0.6573959722 0.7424565187 0.1621263094 0.6559156768 0.7439888918 0.1560630500 0.6050553243 0.8504653617 0.2446686331 0.6094921999 0.8548464969 0.2417821083 0.5207967235 0.7623145666 0.0984627631 0.7326515707 0.8581097688 0.2193667404 0.7273905201 0.8568457910 0.2066721186 0.5647771006 0.8549312714 0.1613298589 0.5655447512 0.8555399824 0.1539491817 0.1730876790 0.4807040902 0.3236713463 0.1676973656 0.4846861839 0.4415935647 0.1372092202 0.6603890995 0.2434474674 0.0843619291 0.6890417500 0.2636713608 0.1610016236 0.6613729360 0.2414232240 0.2576845856 0.4522146808 0.3447874965 0.2908204809 0.4616814293 0.4187227534 0.2909881553 0.5655097692 0.4523295851 0.3086334912 0.4589965176 0.2813330098 0.1182083716 0.7733040959 0.4080898065 0.2713209051 0.7854264991 0.2555512307 0.4240756316 0.5343447217 0.4164830281 0.4308563889 0.5455606946 0.4205676676 0.2460004656 0.8876089253 0.3715553284 0.3711229398 0.8402723239 0.4486938605 0.3884537763 0.8571714957 0.4473817058 0.4440473537 0.9114116647 0.2749315576 0.5616925195 0.7792382009 0.4616578764 0.7554644203 0.3393622815 0.5253686373 0.7491434917 0.3251165363 0.5221874508 0.7310380460 0.1923237846 0.5211111480 0.6605265009 0.0750018453 0.2089066788 0.6490922141 0.1078240812 0.2421729322 0.6082328726 0.1071851392 0.3161806495 0.5368086296 0.0942203590 0.3297718970 0.6497675558 0.8867016926 0.4452708618 0.6558290855 0.9007448443 0.3525089452 0.6572084679 0.9097054948 0.3464138694 0.7437355631 0.9446354590 0.5283423928 0.6975299736 0.9102990832 0.3310050951 0.7118971910 0.2412329764 0.2823343584 0.6923347604 0.1618255817 0.4376722989 0.7639627152 0.3793137875 0.3440303311 0.7707361868 0.3872260821 0.3523741922 0.5690857346 0.3189437748 0.3113897581 0.5335521789 0.2357776300 0.4478722133 0.4819231825 0.2672514266 0.3471249499 0.4709354689 0.3273644552 0.5039597781 0.4582443947 0.3355683571 0.5055515047 0.3861283955 0.4139791775 0.4441340448 0.5795579291 0.5972598033 0.5628806394 0.1272838606 0.2954927005 0.0794084357 0.1210210810 0.2920261505 0.0845421074 0.1781399066 0.3772365571 0.0528340705 0.1491833821 0.4388049603 0.0568123117 0.0950507763 0.4146558122 0.1045548715 0.2077566891 0.4386277317 0.0527659995 0.1964206498 0.4344288792 0.0567133882 0.2718641523 0.5419342125 0.0599528995 0.1116347834 0.4730200946 0.1348037226 0.1123435893 0.4827929233 0.1420340740 0.1047359726 0.4920117011 0.1450391749 0.0995438422 0.5073286688 0.1534461649 0.1196632631 0.6091649310 0.0768635794 0.1243072189 0.6141220208 0.0785443040 0.0731064674 0.6660889164 0.2039462536 0.0764847316 0.6738821860 0.1942227476 0.1368994277 0.3952855538 0.2410308872 0.2422137618 0.3041293323 0.2229848132 0.2365971409 0.2958153659 0.2228490036 0.2487073930 0.3044901860 0.2244123643 0.2293360878 0.2902095237 0.2219686228 0.2433837370 0.2948296485 0.2245378236 0.2197450446 0.2869285662 0.2202325896 0.2548637694 0.3066658231 0.2255151102 0.2368439723 0.2880815065 0.2239875018 0.2496218805 0.2953277350 0.2258880843 0.2609605028 0.3107899168 0.2263364226 0.2673071726 0.3172674115 0.2268950307 0.2743130789 0.3269069233 0.2271859453 0.0603284851 0.3238589293 0.2405527496 0.2818537342 0.3248944297 0.2291698490 0.2734198307 0.3270488707 0.3139750871 0.2819442011 0.3344277996 0.3145361662 0.0744066950 0.2508622466 0.2704874371 0.0724373890 0.1488438624 0.2300768420 0.1130175576 0.0685979795 0.2994124104 0.1289117557 0.0610856391 0.3107429798 0.2422541876 0.1318700376 0.3407273015 0.2508587064 0.1370574198 0.3419972511 0.2667445333 0.1556162198 0.3433602395 0.2741736443 0.1652456559 0.3438921575 0.2824447653 0.1696901668 0.3451598495 0.8679171088 0.1866464771 0.4388067705 0.8336793202 0.1057844147 0.4125786988 0.7587802786 0.1533924872 0.5977288346 0.7548256596 0.1422557306 0.5935157323 0.7470109396 0.1331164404 0.5912825013 0.2973204266 0.2801235410 0.5031617741 0.2898213869 0.2700269672 0.4140877391 0.2535000753 0.3450426041 0.3698641386 0.3102821765 0.3803418159 0.4286205113 0.6312884688 0.7388037126 0.5144371845 0.6934340337 0.6467633074 0.3835482169 0.7179963668 0.8411238153 0.5228715379 0.7601125697 0.7119198040 0.4431578109 0.7150690532 0.7763956047 0.3773374468 0.7224929568 0.7765644848 0.3764740050 0.7217499539 0.7830364153 0.3798922162 0.5481885614 0.5178814308 0.2034166727 0.6016774662 0.5231821376 0.2544422302 0.6024653567 0.5427592085 0.2596857982 0.6200442726 0.5473508233 0.0836205564 0.6262685183 0.5623858749 0.0836989322 0.6399074588 0.5592329747 0.0832589882 0.7413571729 0.6640251168 0.2510474387 0.8187180198 0.4748240771 0.2427191538 0.8265622426 0.4850385198 0.2453616708 0.7524098713 0.6663462385 0.2524263546 0.8342699052 0.4949644066 0.2478056156 0.7588462121 0.7526343212 0.1137501664 0.7644311336 0.6690107601 0.2538325319 0.7782263948 0.6723035767 0.2552960106 0.8026222729 0.7665644571 0.1615342617 0.8794317344 0.6238433040 0.0942665346 0.9217435199 0.5592538374 0.1912947469 0.8981110476 0.6354674744 0.0942530139 0.9265946306 0.6781197977 0.2684893531 0.9125156627 0.7262494850 0.2334572638 0.9396911330 0.6711487611 0.2630043505 0.3658526197 0.5765587124 0.0833473391 0.4803352617 0.7324424493 0.0279606010 0.4430330525 0.6659637497 0.0961073400 0.4495918115 0.6639638437 0.0952669108 0.4523358217 0.6598790751 0.0965933998 0.3894152138 0.1711526905 0.4216738646 0.3343309242 0.0835967724 0.4717569073 0.1711629969 0.1840696704 0.3885514244 0.2163987607 0.1306967968 0.4587593960 0.1403173300 0.0872419766 0.4244186210 0.9285702606 0.4500574673 0.5810549437 0.2542665764 0.1549644934 0.0768239673 0.2905345686 0.1241734277 0.1289606873 0.3212500988 0.0796918136 0.1134331487 0.3626136999 0.1664949976 0.0989912874 0.3618117549 0.1720329537 0.1001077199 0.3650574185 0.1699176035 0.1024754864 0.3680820594 0.1736262427 0.1065978636 0.3291204833 0.2036826154 0.1572356188 0.3370105410 0.2091298369 0.1616361250 0.0617468852 0.1503413957 0.5057995476 0.1851546120 0.1663329976 0.5386187362 0.1499010037 0.2658896993 0.5712991806 0.1483449714 0.2522235524 0.4787905345 0.0408595486 0.9382736762 0.1632801095 0.1579123071 0.9508839940 0.1726202548 0.1685813823 0.9468863894 0.1683301074 0.4623077335 0.4848417833 0.1661080743 0.4577480958 0.4752238951 0.1662387403 0.5258200237 0.3954505733 0.2669791817 0.8807307563 0.5610009511 0.0484159737 0.8724850815 0.5657494597 0.0455653091 0.8788724284 0.5639575340 0.0436099416 0.9528860308 0.5564840024 0.0824625493 0.0848631289 0.9509150177 0.2972594022 0.0909323082 0.9527348693 0.2984104556 0.1709237160 0.9291520258 0.3642661956 0.7712013223 0.0774326644 0.2849989914 0.7320445392 0.0975392237 0.3049635007 0.7245536464 0.0995462495 0.3031239806 0.8351613621 0.1252679761 0.3223784628 0.8416795197 0.1387116542 0.3278999137 0.7707171416 0.1908863421 0.2038470363 0.7747343144 0.1947193453 0.2066775428 0.3426298186 0.1902175753 0.5344587503 0.3550250622 0.1906344902 0.5362025549 0.4140014152 0.2829444953 0.5664153570 0.9549024110 0.6061793199 0.3610205442 0.8663843072 0.6117988213 0.4001128600 0.8999179479 0.4790676615 0.3659224461 0.9022708967 0.4738060775 0.3628364700 0.8960231609 0.4718838634 0.3635570271 0.9027218681 0.3807537855 0.2926235424 0.8058019450 0.0773934106 0.5900185274 0.3432517686 0.9113997931 0.0686959594 0.3482571056 0.9041870091 0.0728549601 0.2973777325 0.8399044577 0.0897858151 0.2988441415 0.8343474754 0.0890977196 0.8006527644 0.6605805659 0.3595349790 0.6844029720 0.6155010287 0.3399599248 0.6751680191 0.6201205878 0.3384223739 0.1505759606 0.9040901463 0.4534405241 0.1568613252 0.9069191248 0.4543829533 0.1183445356 0.9135207614 0.2299883247 0.1206158246 0.9131854724 0.2376249069 0.2538573300 0.3186009983 0.1147668051 0.2556201223 0.3240393496 0.1154069929 0.2607361523 0.3190395284 0.1151263747 0.2621687821 0.3245777135 0.1156876312 0.2673283385 0.3190369247 0.1154435695 0.2631777518 0.3301138814 0.1161664302 0.2685362926 0.3247195141 0.1158621415 0.3468117792 0.2670683414 0.0577853661 0.2798044140 0.4118688595 0.0597693119 0.1971447721 0.4195476179
[...]
      <PointData Scalars="overlap">
        <DataArray type="Float32" Name="overlap" format="ascii">
 0.0002253007 0.0000175530 0.0002057571 0.0000271314 0.0000865019 0.0000330822 0.0000067708 0.0000516437 0.0002478358 0.0002506917 0.0001090878 0.0000484644 0.0000727608 0.0004921665 0.0000268373 0.0002310281 0.0000930702 0.0000061011 0.0000060666 0.0001283366 0.0000224812 0.0000489241 0.0000315453 0.0000307110 0.0000235805 0.0000097717 0.0001205679 0.0000833820 0.0001926516 0.0001202402 0.0000299119 0.0000288121 0.0000077387 0.0000869308 0.0002829757 0.0000290065 0.0001988390 0.0000834261 0.0000473655 0.0000985397 0.0001043993 0.0001688736 0.0000243809 0.0000128757 0.0001826898 0.0000522709 0.0000013850 0.0000530508 0.0001661627 0.0000600316 0.0000789435 0.0002213873 0.0000634885 0.0000340917 0.0000157454 0.0000085535 0.0000551414 0.0002887648 0.0001531437 0.0000508048 0.0001168220 0.0000163285 0.0000950740 0.0000950797 0.0000264561 0.0003200722 0.0000191827 0.0000905578 0.0000912126 0.0000192319 0.0000291512 0.0000605673 0.0000071297 0.0000865014 0.0000181055 0.0000016264 0.0000080338 0.0000089267 0.0000386274 0.0001855229 0.0000087378 0.0000307622 0.0002616554 0.0001144776 0.0000377776 0.0001250319 0.0000100400 0.0000136746 0.0000040439 0.0000156638 0.0000166029 0.0000397002 0.0000069764 0.0000392792 0.0000273584 0.0001009206 0.0001227037 0.0000460020 0.0000056036 0.0000080839 0.0000275424 0.0000244683 0.0000817823 0.0000440605 0.0000532152 0.0000487609 0.0000603255 0.0000762188 0.0000622188 0.0000973973 0.0000385572 0.0000569135 0.0000139069 0.0001102929 0.0000158341 0.0000253979 0.0001250041 0.0001382338 0.0001231931 0.0000799801 0.0001380587 0.0000155739 0.0000301437 0.0000371711 0.0000323551 0.0000591791 0.0000282986 0.0000085511 0.0000406073 0.0001086561 0.0000464361 0.0000187228 0.0000024015 0.0000395155 0.0000015756 0.0000123719 0.0000048958 0.0000334218 0.0000390919 0.0000604046 0.0000185143 0.0000167124 0.0000083395 0.0000068161 0.0000120086 0.0000224036 0.0000203152 0.0000126797 0.0000104214 0.0000259925 0.0000088220 0.0001698653 0.0000139437 0.0000453876 0.0000111296 0.0000460590 0.0001709433 0.0000241159 0.0001046192 0.0002024649 0.0000361891 0.0000388976 0.0001536202 0.0000027332 0.0000400215 0.0002874853 0.0000075806 0.0000179319 0.0000144330 0.0000430165 0.0000045113 0.0000128674 0.0000078685 0.0000746828 0.0000377510 0.0000592916 0.0000611091 0.0000359076 0.0000599986 0.0000173384 0.0000351028 0.0000002244 0.0000569360 0.0000125414 0.0000176524 0.0000519087 0.0000191700 0.0000531329 0.0000302639 0.0000300164 0.0000205003 0.0000077527 0.0000283956 0.0000114163 0.0000228550 0.0000145012 0.0000044506 0.0000259445 0.0000157613 0.0000056997 0.0000675007 0.0000369575 0.0000020328 0.0000129009 0.0000076758 0.0000005226 0.0000400077 0.0000106927 0.0000494126 0.0000639020 0.0000373497 0.0002481442 0.0000715853 0.0000078621 0.0000103960 0.0000073940 0.0000071229 0.0000117664 0.0000364663 0.0000337050 0.0000538071 0.0000648184 0.0000026782 0.0000081245 0.0000881420 0.0000310394 0.0000607830 0.0000853960 0.0000026433 0.0000074488 0.0000563012 0.0000903177 0.0000005507 0.0000288943 0.0000795796 0.0001168570 0.0003505930 0.0003212835 0.0000395109 0.0000252614 0.0001374269 0.0001621974 0.0000228373 0.0000387155 0.0000069455 0.0000152688 0.0000602850 0.0000175793 0.0000222554 0.0000123549 0.0000312969 0.0000744967 0.0000535174 0.0000057820 0.0000332738 0.0000231224 0.0000207474 0.0000334244 0.0000189463 0.0000230785 0.0000277225 0.0000619540 0.0000030590 0.0000056358 0.0000216064 0.0000016383 0.0000080018 0.0000689999 0.0002010031 0.0001002806 0.0000704529 0.0000618250 0.0000253957 0.0000529841 0.0000843888 0.0000197705 0.0000510508 0.0000227475 0.0001328653 0.0000052302 0.0000218394 0.0000398998 0.0000060407 0.0000131588 0.0000071933 0.0000120939 0.0000693298 0.0000462586 0.0000084754 0.0000061455 0.0000201182 0.0000510379 0.0000427460 0.0000047543 0.0000223097 0.0000264176 0.0000096052 0.0000018335 0.0000133949 0.0000581773 0.0001162438 0.0000070511 0.0000208274 0.0000301044 0.0000082282 0.0000234385 0.0000218202 0.0000727451 0.0000746188 0.0000794089 0.0000092051 0.0000793227 0.0000033473 0.0000340948 0.0000165233 0.0000032174 0.0000092606 0.0000222661 0.0000323846 0.0000314925 0.0000290316 0.0000209630 0.0000060657 0.0000220224 0.0000136483 0.0000218845 0.0000040433 0.0000588248 0.0000080850 0.0000054119 0.0000114171 0.0000608028 0.0000874368 0.0000141937 0.0000076098 0.0000050798 0.0000504606 0.0000601874 0.0000344817 0.0000375620 0.0000593967 0.0000512150 0.0000145529 0.0000059795 0.0000103793 0.0000045991 0.0000062731 0.0000086054 0.0000098028 0.0000055292 0.0000459242 0.0000166778 0.0000076723 0.0000326043 0.0000233765 0.0000007249 0.0000053773 0.0000594682 0.0000460879 0.0000198239 0.0000226175 0.0000418986 0.0000146474 0.0000079109 0.0000069608 0.0000335034 0.0000269922 0.0000106272 0.0000221446 0.0000403882 0.0000195097 0.0000137600 0.0000140317 0.0000066040 0.0000152030 0.0000080252 0.0000100648 0.0000156046 0.0000151316 0.0000045909 0.0000049285 0.0000517307 0.0000115732 0.0000605177 0.0000295566 0.0000315286 0.0000093929 0.0000184367 0.0000044964 0.0000027919 0.0000039721 0.0000650012 0.0000060034 0.0000313273 0.0000111119 0.0000235718 0.0000132283 0.0000245233 0.0001356134
        </DataArray>
        <DataArray type="Float32" Name="contact normal" NumberOfComponents="3" format="ascii">
 0.9747554616 -0.1893134704 -0.1183731388 0.1555737248 0.9312609385 0.3294690889 -0.0006373328 0.6164442928 -0.7873982649 -0.2103076478 0.7157943337 -0.6658897544 0.1103640559 -0.0480300820 -0.9927300169 0.2338421353 -0.1107110422 -0.9659507860 0.5992055100 -0.7720069683 -0.2120330107 -0.3785341864 0.6351394219 -0.6732828414 -0.3288768490 0.6782703358 -0.6571068176 -0.1641726773 -0.9501202916 -0.2651768532 -0.8558114321 0.4668476775 0.2228004460 -0.1400033041 -0.4491055888 0.8824416383 -0.1479993410 -0.4748810884 0.8675160788 -0.1169577836 -0.3830526967 0.9162922614 -0.0083249284 0.0626800796 -0.9979989495 0.0267987646 -0.0943975204 -0.9951738212 -0.8319750944 -0.0603935187 0.5515161513 -0.4684037193 0.3948224019 -0.7903880229 -0.3784748955 -0.4904626717 -0.7849860643 0.4266454111 -0.1496886827 0.8919456214 0.4063586147 -0.1798458761 0.8958393478 -0.6620760914 -0.1481343693 -0.7346505685 0.5876629634 -0.7239376519 0.3613398919 -0.6340905213 -0.2069772537 -0.7450433727 -0.0676091834 -0.3232781547 -0.9438857097 -0.7624911016 0.1937176620 -0.6173174122 0.3124811083 -0.0294272776 0.9494680575 -0.7342370563 -0.5295580365 0.4248108182 -0.7988548760 -0.6010920786 0.0227859633 -0.0013698622 -0.9554467314 0.2951604088 0.3770214404 0.7929131698 0.4786893968 0.3335690162 -0.6196509787 -0.7104677164 0.7209807843 0.5217097818 -0.4560763228 0.7537182997 0.4852879212 -0.4431753133 0.2852029560 0.6836227206 -0.6718029843 -0.4732840825 -0.4351852745 -0.7659085808 0.2186630479 -0.1884355064 -0.9574333039 -0.6235802653 0.7261394839 -0.2896016276 -0.5201694754 0.6631041621 0.5382532742 -0.1223120933 -0.0632331556 -0.9904753000 -0.3277451437 0.7301528819 0.5995497392 -0.7229386346 0.6861783942 0.0807399653 0.4062272065 -0.7683038461 -0.4946601427 0.4403020160 -0.7260601385 -0.5281768737 0.1714135253 0.2531711462 0.9521143703 -0.4363229209 -0.6609520109 0.6105446323 -0.9456345889 -0.3248606000 -0.0155182103 0.6139397607 -0.7892923365 0.0097763880 0.5989308865 -0.8008005549 0.0005141766 0.5472188459 0.8316363812 0.0945117145 0.4998113463 0.7781989662 -0.3802564754 0.0644267311 -0.3623476236 0.9298136351 0.7572567375 -0.0105268091 0.6530324799 0.1054412926 0.2945936819 0.9497877112 -0.1809020877 0.8143276138 -0.5514934017 -0.1033724717 0.6607672490 -0.7434384808 -0.0957119701 0.2005465373 -0.9749975924 -0.2508221009 0.5934676183 0.7647773923 0.4792931648 -0.4879439381 -0.7295126972 0.2611672506 -0.8734863524 0.4108689078 -0.4050263797 0.2950858404 -0.8653773620 -0.5610671238 0.6174398270 -0.5513363244 0.6796839781 -0.6364848711 -0.3645774250 0.1152703704 -0.2602750466 -0.9586290429 0.2785769113 -0.2555824359 -0.9257821142 -0.1151294936 -0.6947391843 0.7099877925 -0.1319865909 -0.1364227603 -0.9818189091 0.1889916222 -0.3259882141 0.9262903708 0.1771372051 -0.3355328171 0.9252243724 -0.3539029116 0.6917228853 -0.6295015322 -0.5815557352 -0.3308919536 0.7431712063 -0.6850129008 -0.6446795769 0.3393310609 -0.3519585033 0.0409990681 -0.9351172592 0.2481258740 0.1400635931 -0.9585487680 0.6234797746 0.3239695041 -0.7115593658 0.9444714191 -0.0566727060 0.3236694965 0.9482903589 0.0855584446 0.3056552761 -0.4734710022 0.6020933713 -0.6428909568 -0.5584122584 0.4656548008 0.6865430476 -0.4312460557 0.6832492943 0.5892344536 0.1343172262 0.8425409754 -0.5216163222 -0.6365651141 -0.7534992327 0.1643890561 0.0926928117 -0.3335345654 0.9381698867 0.0489963504 -0.2190339933 0.9744862582 0.3163078609 0.5396107627 -0.7802368627 0.7737781553 0.4542856141 0.4414656807 0.3336553268 0.5760562173 -0.7462126758 0.2731779356 0.6214750909 -0.7342632545 0.8864808453 0.4479915617 -0.1159968602 -0.3029018312 -0.8435923539 -0.4433987157 -0.2974531212 0.9482577764 0.1110352657 -0.3437133980 0.8246704436 0.4491990199 -0.8803514192 -0.1147568048 -0.4602306536 -0.2751917452 -0.8528874988 -0.4436805356 -0.0722237575 -0.8079358152 -0.5848277074 -0.2014301017 0.9574081941 0.2068706455 -0.5934940783 0.7299768362 0.3389669564 -0.3922051472 -0.5327735591 0.7498849627 0.3396646037 0.5385649126 -0.7710874088 0.3862913684 0.5406380193 -0.7473215578 0.3396498324 0.5385640308 -0.7710945312 0.3396458559 0.5385637934 -0.7710964486 0.1126246925 -0.4601032019 0.8806933191 0.1108317546 -0.4528067406 0.8846933807 -0.0838069001 -0.9413542277 -0.3268464799 0.7067015675 -0.6148225124 -0.3500945196 0.4599559293 -0.3548447795 -0.8139568327 -0.2235073596 0.1352042816 0.9652793702 -0.2231803599 0.1347987289 0.9654117410 -0.2230408162 0.1346260609 0.9654680824 -0.2232273669 0.1348570205 0.9653927318 -0.2225760515 0.1340493595 0.9656555651 -0.2236680507 0.1354035831 0.9652142108 -0.2227690595 0.1342890016 0.9655777598 -0.2224660801 0.1339130021 0.9656998245 -0.1802084447 0.0818524286 0.9802168619 -0.2226746068 0.1341828990 0.9656142962 -0.2226593634 0.1344160492 0.9655853839 -0.2230726659 0.1349954230 0.9654091472 0.1669253978 -0.3145198445 -0.9344587626 -0.2215185504 0.1354752251 0.9656997438 0.2534592048 -0.2169813924 -0.9426969327 0.2505243397 -0.2101600946 -0.9450239626 0.4823442633 -0.3851704838 -0.7867577201 0.7374703288 0.4353340863 0.5163542848 0.4636734419 0.3371314273 -0.8193591032 0.8230585176 -0.5670166339 -0.0326621103 0.2197722801 -0.1326037164 -0.9664969732 0.2253272232 -0.1300543895 -0.9655638240 0.2248739299 -0.1264210814 -0.9661518648 0.2037518880 -0.0979201276 -0.9741133490 0.2245787279 -0.1254484288 -0.9663472909 0.1756574204 -0.7374310456 0.6521808979 0.1958838612 0.1959952955 0.9608409635 -0.0155796798 0.4234322196 -0.9057938115 -0.0707350234 0.3607702928 -0.9299684684 -0.1004560127 0.3256073114 -0.9401534280 -0.0743111959 0.1549469219 -0.9851240011 -0.3376737865 0.8585540484 0.3858255563 0.1560711455 -0.5231895581 0.8378033682 -0.3066347715 -0.9367091699 -0.1689705532 0.9258991386 0.1042720843 -0.3630951907 0.5340545899 0.5979773636 0.5976694468 -0.6750353686 -0.6277333607 -0.3876571669 -0.9195382184 0.3290362736 -0.2149060155 0.0689879597 -0.6885774458 0.7218737857 0.0714530599 -0.6715869791 0.7374722976 0.0633627772 -0.3691996196 0.9271875751 0.4348781121 0.8794780956 -0.1933890044 -0.3197012185 -0.5168023793 -0.7941702788 0.2726887106 0.5234805623 -0.8072229977 -0.0187483049 0.0079270641 0.9997928099 -0.0187582085 0.0079573307 0.9997923837 0.0753918529 -0.0381789713 0.9964228192 0.2195184388 -0.5921844526 -0.7753252409 -0.1204666094 0.3287108726 -0.9367160499 -0.1204797938 0.3287217392 -0.9367105409 0.2194898892 -0.5919964968 -0.7754768445 -0.1204914630 0.3287313564 -0.9367056649 0.1357816757 -0.0261332697 0.9903940573 0.2192795249 -0.5917304088 -0.7757393978 0.2181291964 -0.5917914495 -0.7760170965 -0.3180794836 -0.8153333951 0.4837942713 -0.2059575004 0.1752070266 0.9627481529 -0.8647633802 0.4792090019 -0.1501433605 -0.0545656974 0.3320566941 0.9416798482 -0.6879654083 0.4288408047 -0.5854905304 -0.0387314737 -0.7615576685 -0.6469387841 0.1346929327 -0.2781099973 -0.9510586960 0.6640578366 0.3246303286 -0.6735297614 -0.2386525753 -0.2963228437 0.9247906361 -0.1923026648 -0.3520425737 -0.9160162179 -0.1771636018 -0.3510684402 -0.9194367888 -0.1801672457 -0.3565764600 -0.9167295085 -0.8774163263 0.4309653865 0.2107354408 -0.5001387314 0.4190779555 -0.7577828954 0.5889325729 -0.5446856978 -0.5970560403 0.2174834651 -0.1596807599 -0.9629138058 0.9732609445 0.2296983389 0.0013442228 -0.6193134828 0.5275495228 -0.5815000524 0.9097934038 -0.4077803247 0.0774026435 0.6530841140 0.0527782203 -0.7554439751 0.1091013490 0.9771289038 0.1825267132 -0.6847301638 -0.2364545445 0.6893720702 -0.6894297001 -0.2314243750 0.6863886998 -0.6822139828 -0.2397798895 0.6907167916 -0.6643651862 -0.2351678179 0.7094469654 0.4877485672 -0.4803080736 -0.7289756441 0.7528395298 -0.6492581800 -0.1081501649 0.0332296678 0.4261971708 0.9040197790 -0.6546543680 0.4064331378 0.6373694086 -0.0726733772 -0.4846356119 -0.8716919777 -0.5033507007 -0.6987142606 0.5083664565 0.3390157720 0.2884286318 -0.8954759800 -0.2373873188 0.0128334744 -0.9713303057 -0.2615760685 -0.0587909378 -0.9633906715 0.7522865344 0.2694516151 0.6012160987 0.1439975337 -0.6094732372 0.7796198327 -0.4401258391 0.8365772904 0.3262325597 0.2696941239 0.7976526281 0.5394583991 0.2716262963 0.8386181286 0.4721639434 0.2090918154 0.6355631226 -0.7431958893 -0.3845818471 0.7536675733 -0.5329934258 -0.2919759536 0.6684387332 0.6840611833 -0.2518890031 0.6666779382 0.7014930198 -0.8247828300 0.4462151095 0.3473116170 -0.1772982239 0.9573739653 0.2280360288 0.3002266990 0.5922464549 -0.7477352913 0.2806554410 0.5827387733 -0.7626585380 -0.2984418294 0.4463298976 -0.8436362350 -0.3000438419 0.4872087233 -0.8201227670 -0.1923656147 -0.5414377627 0.8184379142 -0.1957693177 -0.5312655822 0.8242762009 -0.4403280059 0.6284702822 -0.6411991512 0.0843764879 0.9896457990 0.1161111568 -0.6559060823 -0.6631169656 0.3606426226 -0.6477163864 -0.7391531048 -0.1847056316 0.6216474517 -0.6940027861 -0.3632004663 -0.4377067135 0.6553998230 -0.6155192158 -0.1216626746 0.3523875336 -0.9279122910 -0.2329598709 0.2568597730 -0.9379513610 -0.4786222259 0.7628191674 -0.4347731393 -0.1737034250 0.6567034809 0.7338716906 -0.7734241084 -0.6004235677 -0.2032404682 -0.7640773472 -0.6230890198 -0.1671702156 0.2986760492 0.2188553590 -0.9289213903 0.2974133397 0.2166324931 -0.9298471209 -0.2439381785 0.3579339130 -0.9013198539 0.3978144862 0.4542163625 -0.7971393420 0.3423483113 0.4963736673 -0.7977536062 -0.3679618612 0.7958034295 0.4809375950 -0.3649433834 0.8040828183 0.4693262706 -0.8854927916 0.3731738334 0.2768461776 -0.8869884245 0.3678066543 0.2792307286 0.0322036299 0.0956236471 -0.9948964993 0.0299036965 0.0983252516 -0.9947049381 0.0681934563 0.0531642220 -0.9962545950 0.0336702785 0.0939391353 -0.9950084177 0.0706240308 0.0502731205 -0.9962353435 0.0314998980 0.0964964359 -0.9948347573 0.0697324719 0.0513364101 -0.9962439236 -0.9735279692 0.2172828902 0.0709326364 -0.4238742399 -0.7489779859 -0.5092765510 0.4890293389 -0.6031942967 0.6300848722 0.0011450959 0.0684565777 -0.9976534397 0.1759364630 -0.2961183438 -0.9388079076 0.5084311205 -0.3526578268 -0.7855763826 0.1803347313 -0.9835924640 -0.0050248830 0.9711422416 -0.0971715448 -0.2178082586 -0.2651237983 -0.9614108402 0.0734749481 -0.2908626387 -0.5680925169 0.7698505165 0.6003665645 -0.1235711692 -0.7901203417 0.4877575461 0.4212436956 0.7646216876 -0.0680051920 -0.9155794142 -0.3963453422 -0.1219281458 0.3803863331 -0.9167550190 0.3198505352 -0.2090755714 0.9241120282 -0.6040766165 -0.0347620602 -0.7961677214 -0.2391606545 -0.6359413695 0.7337443396 -0.2315499301 -0.6370173468 0.7352506578 0.8045628089 -0.5925189218 0.0400001730 0.5654671271 -0.0073233409 0.8247383202 0.0996595934 0.7560938940 0.6468307266 -0.1534761206 0.6421886126 -0.7510252101 0.7465903869 0.1815147407 -0.6400431181 0.1414887247 -0.5278153785 -0.8374914131 -0.6001549041 -0.5560305281 -0.5750166458 -0.2655279430 0.5367713776 -0.8008566661 -0.8479728682 -0.3158349849 -0.4256645124 -0.7710798762 -0.1248549725 -0.6243773381 0.3590314657 0.2544342861 -0.8979752785 0.3518002966 0.2536808418 -0.9010452718 0.3589463717 0.2544594014 -0.8980021800 0.4646796619 -0.0593404167 0.8834882720 -0.0937015027 -0.1858339303 -0.9781031534 -0.0848816618 -0.1981142047 -0.9764967309 -0.1139178944 -0.6161850898 -0.7793193495 0.0885991734 0.1653792445 0.9822422776 0.7157449849 -0.2994635816 -0.6308967268 0.8781507573 0.0218788775 0.4778834189 0.4081562164 0.9091511771 -0.0827806750 0.9198109970 -0.1472141468 -0.3636972983 0.4277942180 0.5480238593 -0.7187920121 0.4394593410 0.5374386049 -0.7197466454 -0.0485471398 -0.6506536616 0.7578212110 -0.0481454084 -0.6506584038 0.7578427681 -0.0497879200 -0.6508238603 0.7575945261 -0.0495900097 -0.6508273813 0.7576044817 -0.0496822201 -0.6508522693 0.7575770592 0.3639481354 -0.0156262408 -0.9312881269 0.9432773597 0.2503026994 -0.2181201076 -0.4285751924 0.5269047393 0.7339582414 -0.4289662184 0.5264791066 0.7340352402 -0.4345296056 0.5250756301 0.7317647194 -0.7262248196 0.3025858016 0.6172838440 -0.0362789409 0.2405692897 -0.9699537387 0.0041125854 0.2892688583 -0.9572390580 0.0163358517 0.3096381039 -0.9507141445 0.2013702331 0.3973491225 -0.8953009014 0.1078197079 0.8494448857 -0.5165445738 -0.3692995242 -0.1432367115 -0.9182053724 -0.2699977183 0.0784228749 -0.9596619638 -0.3530757061 -0.2886966388 0.8899392094 -0.3215940993 -0.9253117442 -0.2009363364 0.2932614959 -0.5837316644 -0.7571360769 -0.0298860679 -0.6451739306 -0.7634509953 0.2668485497 0.3719985488 -0.8890494538 0.3191473703 0.1144518819 -0.9407686872 -0.3964198819 0.0135378111 -0.9179695011 -0.3971692287 0.0123301380 -0.9176625586 -0.3732126917 0.0502588972 -0.9263834681 -0.3734302027 0.0499675629 -0.9263115709 0.1842423148 -0.3894850113 0.9024168634 -0.2693613058 0.0358345165 -0.9623722639 -0.2119796628 0.0192442477 -0.9770845826 -0.0860974183 -0.1622323210 0.9829892719 0.6306148443 -0.6960719106 -0.3432328851 0.6343447787 -0.6934156782 -0.3417329352 -0.2452333326 0.8945678106 -0.3736429377 -0.4035263109 0.9128078544 0.0628357964 -0.5503004292 -0.7400325044 0.3866798806 0.1735313834 0.3615624290 -0.9160564769 0.1744389551 0.3463885951 -0.9217298911 0.3688360819 -0.7351873377 -0.5687350202 -0.4895680825 -0.5444975985 -0.6810620073 0.0874883876 0.4826749242 0.8714187854 0.0729875799 0.4577587242 0.8860754841 0.2545706729 0.7718883137 -0.5825651927 0.2177886131 0.8018516547 -0.5564189464 -0.1614253677 -0.9838721877 0.0770543250 -0.0928316457 0.9011113749 0.4235334409 -0.4452307415 -0.8639928675 -0.2351295639 0.7007691936 -0.1018087792 0.7060860498 0.7781012262 -0.0149243879 0.6279615788 -0.1273759537 -0.6337191844 0.7630041689 -0.1228634928 -0.6298758678 0.7669165230 -0.1273447320 -0.6337442515 0.7629885601 -0.1228333136 -0.6299752649 0.7668397112 -0.1228903651 -0.6300231931 0.7667911934 -0.0929892746 -0.6040552534 0.7914987338 -0.1219883104 -0.6310559188 0.7660856868 -0.0935314473 -0.6037216880 0.7916893279 -0.0934100458 -0.6036262390 0.7917764375 -0.0310404231 0.6017004000 0.7981184879 0.5127587208 0.8092015350 -0.2868298625 0.9208299869 0.2509977761 0.2984497472 -0.0789407043 0.2649889201 -0.9610146916 -0.0745070544 0.2682528084 -0.9604629767 -0.0701836203 0.2713622666 -0.9599149857 0.3275290776 0.4936524401 -0.8056252055 0.6858878380 0.7189518143 0.1125440468 -0.1523936298 -0.6449722877 0.7488570823 -0.1524417661 -0.6449502651 0.7488662521 -0.1524552289 -0.6449479217 0.7488655296 -0.1524071264 -0.6449534396 0.7488705686 -0.1524377617 -0.6449499334 0.7488673529 -0.1524577314 -0.6449476119 0.7488652870 -0.1524544804 -0.6449479863 0.7488656264 -0.1523879697 -0.6449556455 0.7488725673 -0.1524030017 -0.6449539146 0.7488709990 0.0626357316 0.755247093