<?xml version="1.0"?>
<VTKFile type="UnstructuredGrid" version="0.1" byte_order="LittleEndian">
  <UnstructuredGrid>
    <FieldData>
      <DataArray type="Float32" Name="TIME"  NumberOfTuples="1" format="ascii"> 6.9999999999 </DataArray>
      <DataArray type="Int32"   Name="STEP"  NumberOfTuples="1" format="ascii"> 700000 </DataArray>
    </FieldData>
    <Piece NumberOfPoints="399" NumberOfCells="399">
      <Points>
        <DataArray type="Float32" NumberOfComponents="3" format="ascii">
 0.4248652339 0.2068256926 0.0759432100 0.5299831905 0.1286330524 0.0400908893 0.5050733788 0.1472908879 0.1825919384 0.6403307486 0.1082665743 0.1124598105 0.5396124215 0.3646969113 0.2040010202 0.5528625153 0.3591027105 0.2072270081 0.5678908038 0.4472846486 0.1939273035 0.7522015225 0.1787393881 0.1457378355 0.7585133008 0.1855918971 0.1501548912 0.6781370475 0.4551493396 0.1694662907 0.8496088657 0.2321595997 0.1150671906 0.7816289979 0.3733982261 0.0369727288 0.7953316365 0.3703152564 0.0373492556 0.8168258657 0.3857440335 0.0431750244 0.8042875691 0.3963509360 0.2240359064 0.8177013878 0.3880446633 0.2261943399 0.8970056521 0.3686633370 0.1723159658 0.7489582383 0.3245514388 0.6726921267 0.7715942470 0.2992916749 0.6582666957 0.7860266179 0.3638988497 0.5621544778 0.8677400007 0.6052367045 0.5111384268 0.9118159301 0.5556471675 0.5587205665 0.8933347826 0.6065757548 0.4947008643 0.9262234735 0.5446443503 0.5458342101 0.9417328976 0.3093601268 0.5254695634 0.9349242124 0.3343185468 0.5344060397 0.9466582117 0.4740592727 0.4508205992 0.2426832222 0.7997990127 0.0414069705 0.2550043589 0.8173398776 0.0914574502 0.0745409115 0.9091238950 0.1097907447 0.1543237975 0.7223199552 0.0815084781 0.0388483474 0.8885769889 0.1662308899 0.0554835391 0.8047841817 0.1553464014 0.0622456819 0.7985060786 0.1588806735 0.1716660545 0.7198414786 0.1453822719 0.1846706076 0.8263780874 0.1958310380 0.5696636123 0.7614169685 0.2455279817 0.6836968693 0.7584638992 0.2617673507 0.6518279838 0.7389200831 0.1620811784 0.7064510622 0.8129153688 0.2796414905 0.6573962030 0.7424566154 0.1621264453 0.6559158923 0.7439889775 0.1560631628 0.6050556703 0.8504655851 0.2446685558 0.6094925421 0.8548467262 0.2417820314 0.5207969544 0.7623145986 0.0984627427 0.7326519277 0.8581099060 0.2193666216 0.7273908689 0.8568458858 0.2066720304 0.5647774318 0.8549314029 0.1613297929 0.5655450722 0.8555401139 0.1539491142 0.1730877384 0.4807040532 0.3236718100 0.1676972607 0.4846862788 0.4415940389 0.1372093783 0.6603889875 0.2434476029 0.0843620678 0.6890416445 0.2636714406 0.1610017795 0.6613727839 0.2414233645 0.2576846308 0.4522146947 0.3447881054 0.2908204330 0.4616815428 0.4187233917 0.2909880706 0.5655099038 0.4523302004 0.3086336122 0.4589964565 0.2813336861 0.1182082912 0.7733042125 0.4080898555 0.2713210295 0.7854264419 0.2555513897 0.4240755930 0.5343448316 0.4164837599 0.4308563510 0.5455607995 0.4205683866 0.2460004667 0.8876089600 0.3715553348 0.3711228142 0.8402725243 0.4486942536 0.3884537113 0.8571716150 0.4473818035 0.4440474660 0.9114116226 0.2749317594 0.5616924127 0.7792383993 0.4616585242 0.7554643588 0.3393625251 0.5253692235 0.7491433495 0.3251168290 0.5221879631 0.7310370163 0.1923242358 0.5211102034 0.6605264886 0.0750018299 0.2089067938 0.6490922676 0.1078241379 0.2421730146 0.6082329656 0.1071852921 0.3161808100 0.5368087051 0.0942205765 0.3297721280 0.6497679933 0.8867013164 0.4452707995 0.6558296349 0.9007447377 0.3525089094 0.6572089895 0.9097054092 0.3464138575 0.7437356673 0.9446352391 0.5283425999 0.6975305158 0.9102991902 0.3310051477 0.7118973918 0.2412333824 0.2823346410 0.6923349964 0.1618258577 0.4376725495 0.7639628635 0.3793142062 0.3440308083 0.7707363208 0.3872265106 0.3523746049 0.5690858788 0.3189441840 0.3113901420 0.5335524080 0.2357778694 0.4478725707 0.4819233218 0.2672517270 0.3471253686 0.4709356758 0.3273645886 0.5039602936 0.4582445933 0.3355684698 0.5055520515 0.3861285478 0.4139793519 0.4441346875 0.5795580893 0.5972599424 0.5628814531 0.1272837979 0.2954929484 0.0794087567 0.1210210334 0.2920263846 0.0845424461 0.1781397377 0.3772367598 0.0528341293 0.1491831709 0.4388051526 0.0568122710 0.0950506437 0.4146560288 0.1045549304 0.2077564523 0.4386278576 0.0527659824 0.1964204239 0.4344290028 0.0567133731 0.2718639851 0.5419342919 0.0599528920 0.1116346320 0.4730202449 0.1348038113 0.1123434500 0.4827930697 0.1420341664 0.1047358363 0.4920118414 0.1450392924 0.0995437186 0.5073288011 0.1534463048 0.1196631550 0.6091651289 0.0768636866 0.1243071153 0.6141222161 0.0785444065 0.0731065071 0.6660890732 0.2039464656 0.0764847587 0.6738823439 0.1942229619 0.1368994694 0.3952855553 0.2410311594 0.2422139386 0.3041295049 0.2229850093 0.2365973278 0.2958155319 0.2228491883 0.2487075700 0.3044903642 0.2244125582 0.2293362812 0.2902096821 0.2219688014 0.2433839259 0.2948298200 0.2245380037 0.2197452412 0.2869287158 0.2202327668 0.2548639443 0.3066660071 0.2255153049 0.2368441692 0.2880816709 0.2239876736 0.2496220685 0.2953279130 0.2258882618 0.2609606730 0.3107901069 0.2263366214 0.2673073351 0.3172676085 0.2268952375 0.2743132296 0.3269071285 0.2271861651 0.0603286159 0.3238588391 0.2405528936 0.2818538884 0.3248946407 0.2291700616 0.2734199036 0.3270489563 0.3139753872 0.2819442643 0.3344278952 0.3145364814 0.0744069187 0.2508621136 0.2704874373 0.0724377287 0.1488437720 0.2300766709 0.1130180201 0.0685978758 0.2994121366 0.1289122006 0.0610855255 0.3107427397 0.2422545168 0.1318700317 0.3407272468 0.2508590278 0.1370574236 0.3419972098 0.2667448296 0.1556162425 0.3433602332 0.2741739269 0.1652456879 0.3438921717 0.2824450418 0.1696902077 0.3451598729 0.8679166256 0.1866465981 0.4388069315 0.8336789040 0.1057845028 0.4125788059 0.7587786062 0.1533932571 0.5977283071 0.7548240022 0.1422564951 0.5935152055 0.7470092868 0.1331172055 0.5912819551 0.2973213459 0.2801230060 0.5031618625 0.2898216826 0.2700269314 0.4140877894 0.2535000027 0.3450427908 0.3698647697 0.3102825026 0.3803417156 0.4286210007 0.6312881651 0.7388038877 0.5144364950 0.6934345146 0.6467633435 0.3835480132 0.7179960880 0.8411238964 0.5228713504 0.7601127203 0.7119198011 0.4431580006 0.7150696947 0.7763956024 0.3773372954 0.7224936018 0.7765644975 0.3764738779 0.7217505832 0.7830364196 0.3798920814 0.5481887431 0.5178816388 0.2034166684 0.6016776156 0.5231823032 0.2544422338 0.6024655140 0.5427593809 0.2596858332 0.6200445166 0.5473510404 0.0836205767 0.6262687661 0.5623860904 0.0836989571 0.6399077050 0.5592331875 0.0832590298 0.7413573659 0.6640252632 0.2510475662 0.8187181726 0.4748241984 0.2427192838 0.8265623957 0.4850386409 0.2453618003 0.7524100635 0.6663463836 0.2524264903 0.8342700589 0.4949645275 0.2478057446 0.7588465025 0.7526344946 0.1137503851 0.7644313251 0.6690109037 0.2538326764 0.7782265856 0.6723037188 0.2552961654 0.8026225236 0.7665645805 0.1615344597 0.8794320020 0.6238434458 0.0942666683 0.9217436594 0.5592539835 0.1912949204 0.8981113095 0.6354676118 0.0942531825 0.9265948230 0.6781198895 0.2684895720 0.9125158810 0.7262496052 0.2334574972 0.9396913225 0.6711488540 0.2630045735 0.3658527286 0.5765590135 0.0833471585 0.4803356210 0.7324427711 0.0279609165 0.4430332624 0.6659639697 0.0961074607 0.4495920189 0.6639640567 0.0952670295 0.4523360215 0.6598792792 0.0965935045 0.3894155166 0.1711527493 0.4216740494 0.3343314009 0.0835966505 0.4717571371 0.1711632768 0.1840692885 0.3885513517 0.2163990812 0.1306964872 0.4587593242 0.1403176938 0.0872414982 0.4244184857 0.9285697795 0.4500573293 0.5810559060 0.2542664684 0.1549648117 0.0768240024 0.2905341993 0.1241738566 0.1289609527 0.3212494998 0.0796920477 0.1134337231 0.3626136376 0.1664948302 0.0989913424 0.3618117015 0.1720327900 0.1001077632 0.3650573576 0.1699174374 0.1024755384 0.3680820014 0.1736260788 0.1065979115 0.3291205628 0.2036829853 0.1572354282 0.3370106501 0.2091301857 0.1616359155 0.0617470036 0.1503408167 0.5057991881 0.1851546638 0.1663325220 0.5386185334 0.1499008974 0.2658891168 0.5712991216 0.1483450065 0.2522231622 0.4787904156 0.0408595916 0.9382736444 0.1632802198 0.1579123678 0.9508839429 0.1726202130 0.1685814387 0.9468863434 0.1683300539 0.4623076732 0.4848422762 0.1661080871 0.4577480177 0.4752244324 0.1662387476 0.5258198160 0.3954508724 0.2669791605 0.8807308661 0.5610013932 0.0484159900 0.8724852070 0.5657499197 0.0455653113 0.8788725565 0.5639579911 0.0436099552 0.9528860868 0.5564842290 0.0824626872 0.0848634363 0.9509151804 0.2972593705 0.0909325910 0.9527350791 0.2984104521 0.1709239928 0.9291525059 0.3642663076 0.7712012957 0.0774327707 0.2849989554 0.7320445382 0.0975393440 0.3049635248 0.7245536427 0.0995463722 0.3031240184 0.8351613858 0.1252680094 0.3223784779 0.8416795524 0.1387116754 0.3278999452 0.7707170857 0.1908866287 0.2038471867 0.7747342630 0.1947196264 0.2066776942 0.3426310688 0.1902170240 0.5344599460 0.3550262542 0.1906340271 0.5362037606 0.4140021906 0.2829444235 0.5664161697 0.9549031180 0.6061792202 0.3610204065 0.8663850712 0.6117989648 0.4001128362 0.8999183982 0.4790676546 0.3659225144 0.9022713113 0.4738060839 0.3628365498 0.8960235702 0.4718838977 0.3635570868 0.9027219887 0.3807537301 0.2926236606 0.8058003629 0.0773943446 0.5900181722 0.3432520694 0.9113998551 0.0686960690 0.3482574055 0.9041870718 0.0728550753 0.2973778608 0.8399046347 0.0897858717 0.2988442574 0.8343476497 0.0890977727 0.8006528916 0.6605806555 0.3595351274 0.6844031325 0.6155011626 0.3399598997 0.6751681685 0.6201207107 0.3384223693 0.1505763835 0.9040904332 0.4534404038 0.1568617305 0.9069194211 0.4543829018 0.1183446691 0.9135207414 0.2299883204 0.1206159672 0.9131854691 0.2376249006 0.2538572694 0.3186013644 0.1147669732 0.2556200636 0.3240397161 0.1154071536 0.2607360918 0.3190398961 0.1151265282 0.2621687239 0.3245780804 0.1156877787 0.2673282783 0.3190372917 0.1154437098 0.2631776950 0.3301142474 0.1161665715 0.2685362331 0.3247198817 0.1158622765 0.3468116162 0.2670684889 0.0577854573 0.2798042318 0.4118690395 0.0597690783 0.1971447434 0.4195476277
[...]
      <PointData Scalars="overlap">
        <DataArray type="Float32" Name="overlap" format="ascii">
 0.0002253169 0.0000175174 0.0002056423 0.0000271228 0.0000864883 0.0000330297 0.0000067695 0.0000516051 0.0002477910 0.0002506513 0.0001089868 0.0000483511 0.0000726476 0.0004920444 0.0000266929 0.0002309447 0.0000929940 0.0000060986 0.0000060015 0.0001283116 0.0000222743 0.0000485078 0.0000315654 0.0000307388 0.0000235455 0.0000097861 0.0001204264 0.0000832647 0.0001926329 0.0001203282 0.0000298431 0.0000288011 0.0000077648 0.0000869556 0.0002828800 0.0000290012 0.0001985352 0.0000834196 0.0000474298 0.0000985860 0.0001044795 0.0001689534 0.0000244378 0.0000128972 0.0001824480 0.0000521805 0.0000013553 0.0000530610 0.0001661405 0.0000599913 0.0000788352 0.0002212903 0.0000635004 0.0000339469 0.0000157485 0.0000085545 0.0000549055 0.0002887943 0.0001530271 0.0000506935 0.0001167693 0.0000162683 0.0000951142 0.0000947479 0.0000267489 0.0003199912 0.0000189928 0.0000904328 0.0000912502 0.0000192964 0.0000291081 0.0000604812 0.0000070641 0.0000864424 0.0000180487 0.0000016345 0.0000080349 0.0000089394 0.0000386296 0.0001853460 0.0000087301 0.0000307391 0.0002614988 0.0001142977 0.0000378507 0.0001249384 0.0000100331 0.0000136198 0.0000040201 0.0000155694 0.0000166635 0.0000397216 0.0000069919 0.0000392656 0.0000274369 0.0001009070 0.0001226640 0.0000460257 0.0000055824 0.0000080635 0.0000274855 0.0000243845 0.0000817031 0.0000439740 0.0000531953 0.0000487352 0.0000603381 0.0000761958 0.0000622063 0.0000973595 0.0000385598 0.0000568852 0.0000139302 0.0001102415 0.0000158190 0.0000253549 0.0001249397 0.0001381566 0.0001231028 0.0000799227 0.0001379495 0.0000154952 0.0000300689 0.0000372078 0.0000322464 0.0000592639 0.0000282976 0.0000085469 0.0000406036 0.0001086607 0.0000464388 0.0000187319 0.0000024336 0.0000394164 0.0000015687 0.0000123767 0.0000048827 0.0000333274 0.0000391451 0.0000602589 0.0000184718 0.0000167213 0.0000083707 0.0000068613 0.0000119854 0.0000224145 0.0000202579 0.0000126376 0.0000104294 0.0000260412 0.0000088056 0.0001698302 0.0000139041 0.0000453704 0.0000111227 0.0000460229 0.0001709218 0.0000241032 0.0001046119 0.0002025923 0.0000361699 0.0000388707 0.0001536912 0.0000026375 0.0000401518 0.0002874363 0.0000075706 0.0000178955 0.0000144273 0.0000429342 0.0000045490 0.0000128181 0.0000078336 0.0000746668 0.0000376765 0.0000589641 0.0000610967 0.0000359916 0.0000598291 0.0000173201 0.0000351459 0.0000002028 0.0000570976 0.0000124809 0.0000176574 0.0000518921 0.0000191968 0.0000531517 0.0000302818 0.0000300506 0.0000205285 0.0000077295 0.0000283037 0.0000114212 0.0000228287 0.0000144564 0.0000044005 0.0000258701 0.0000156920 0.0000056856 0.0000674743 0.0000369688 0.0000019925 0.0000129536 0.0000075771 0.0000005139 0.0000399580 0.0000107315 0.0000494406 0.0000638645 0.0000373151 0.0002480959 0.0000715320 0.0000076602 0.0000103599 0.0000074416 0.0000071282 0.0000117422 0.0000363479 0.0000336041 0.0000537704 0.0000647559 0.0000026788 0.0000081847 0.0000881509 0.0000310067 0.0000607539 0.0000854076 0.0000027340 0.0000074792 0.0000564274 0.0000903370 0.0000005247 0.0000288815 0.0000795431 0.0001167888 0.0003505483 0.0003212053 0.0000394594 0.0000251519 0.0001373408 0.0001621009 0.0000228213 0.0000386544 0.0000069075 0.0000152037 0.0000603010 0.0000174365 0.0000222664 0.0000123223 0.0000312819 0.0000744780 0.0000535260 0.0000057656 0.0000333179 0.0000231364 0.0000207209 0.0000334122 0.0000189484 0.0000229777 0.0000277232 0.0000618912 0.0000030408 0.0000056475 0.0000216343 0.0000017745 0.0000079198 0.0000690060 0.0002009627 0.0001002058 0.0000704452 0.0000618123 0.0000253175 0.0000529117 0.0000843651 0.0000197950 0.0000510996 0.0000226649 0.0001328001 0.0000052242 0.0000218416 0.0000399001 0.0000060314 0.0000130438 0.0000071148 0.0000120477 0.0000693390 0.0000463512 0.0000084339 0.0000061258 0.0000198982 0.0000510142 0.0000429343 0.0000048685 0.0000222835 0.0000263793 0.0000095713 0.0000018163 0.0000133150 0.0000581725 0.0001162131 0.0000070400 0.0000208432 0.0000300510 0.0000082277 0.0000234105 0.0000218352 0.0000726714 0.0000746821 0.0000793572 0.0000092813 0.0000793440 0.0000033164 0.0000341121 0.0000165367 0.0000030838 0.0000093927 0.0000223167 0.0000324189 0.0000314848 0.0000290373 0.0000209631 0.0000060665 0.0000220761 0.0000136214 0.0000218605 0.0000040120 0.0000588339 0.0000080897 0.0000053087 0.0000114658 0.0000608789 0.0000873933 0.0000142703 0.0000077313 0.0000050915 0.0000505154 0.0000601768 0.0000345122 0.0000374859 0.0000593625 0.0000511139 0.0000145030 0.0000060083 0.0000102687 0.0000046544 0.0000061174 0.0000086530 0.0000097835 0.0000055485 0.0000459262 0.0000166765 0.0000076681 0.0000325784 0.0000233695 0.0000007041 0.0000053599 0.0000594581 0.0000460728 0.0000198694 0.0000226308 0.0000418657 0.0000146331 0.0000078781 0.0000069236 0.0000334513 0.0000269788 0.0000106277 0.0000220871 0.0000403626 0.0000195215 0.0000137036 0.0000140952 0.0000065977 0.0000152038 0.0000080068 0.0000100384 0.0000155331 0.0000152018 0.0000045646 0.0000049216 0.0000517534 0.0000115723 0.0000604637 0.0000295437 0.0000313364 0.0000095828 0.0000183737 0.0000045027 0.0000029487 0.0000040807 0.0000649227 0.0000059286 0.0000313053 0.0000111612 0.0000235873 0.0000133003 0.0000245056 0.0001355585
        </DataArray>
        <DataArray type="Float32" Name="contact normal" NumberOfComponents="3" format="ascii">
 0.9747561435 -0.1893105604 -0.1183721776 0.1555711600 0.9312579518 0.3294787420 -0.0006375265 0.6164432881 -0.7873990514 -0.2103073131 0.7157958935 -0.6658881835 0.1103658976 -0.0480324975 -0.9927296952 0.2338442408 -0.1107131214 -0.9659500379 0.5992033184 -0.7720086603 -0.2120330439 -0.3785341365 0.6351395043 -0.6732827917 -0.3288767049 0.6782704385 -0.6571067838 -0.1641724554 -0.9501207520 -0.2651753410 -0.8558115203 0.4668476260 0.2228002151 -0.1400040546 -0.4491071895 0.8824407045 -0.1480002275 -0.4748830552 0.8675148509 -0.1169582917 -0.3830536963 0.9162917787 -0.0083255431 0.0626789807 -0.9979990134 0.0267973316 -0.0943973765 -0.9951738734 -0.8319722427 -0.0603931768 0.5515204906 -0.4684047633 0.3948184140 -0.7903893962 -0.3784753322 -0.4904673177 -0.7849829509 0.4266447499 -0.1497011527 0.8919438448 0.4063554804 -0.1798516516 0.8958396101 -0.6620817967 -0.1481335206 -0.7346455979 0.5876655926 -0.7239335143 0.3613439056 -0.6340965723 -0.2069764983 -0.7450384327 -0.0676094560 -0.3232816698 -0.9438844863 -0.7624920106 0.1937142078 -0.6173173734 0.3124741402 -0.0294312082 0.9494702290 -0.7342391598 -0.5295568197 0.4248086992 -0.7988583587 -0.6010875574 0.0227831317 -0.0013694810 -0.9554470276 0.2951594519 0.3770216879 0.7929146555 0.4786867410 0.3335665628 -0.6196527764 -0.7104673004 0.7209802307 0.5217084915 -0.4560786739 0.7537176814 0.4852866564 -0.4431777498 0.2852018867 0.6836221105 -0.6718040591 -0.4732837072 -0.4351857720 -0.7659085300 0.2186668011 -0.1884401098 -0.9574315407 -0.6235800587 0.7261397503 -0.2896014044 -0.5201689055 0.6631045792 0.5382533110 -0.1223168974 -0.0632315243 -0.9904748109 -0.3277448662 0.7301528085 0.5995499804 -0.7229386508 0.6861783675 0.0807400472 0.4062276251 -0.7683017531 -0.4946630498 0.4403018402 -0.7260580448 -0.5281798984 0.1714170476 0.2531703544 0.9521139467 -0.4363227580 -0.6609508638 0.6105459905 -0.9456347186 -0.3248602824 -0.0155169564 0.6139410606 -0.7892913591 0.0097736678 0.5989319725 -0.8007997446 0.0005112564 0.5472194500 0.8316357246 0.0945139941 0.4998106544 0.7782009538 -0.3802533172 0.0644268662 -0.3623482847 0.9298133681 0.7572580001 -0.0105290540 0.6530309796 0.1054426582 0.2945897318 0.9497887848 -0.1809034855 0.8143293259 -0.5514904151 -0.1033736268 0.6607660984 -0.7434393428 -0.0957191303 0.2005488417 -0.9749964155 -0.2508229510 0.5934649153 0.7647792110 0.4792854093 -0.4879614297 -0.7295060929 0.2611651451 -0.8734879224 0.4108669084 -0.4050282676 0.2950868534 -0.8653761329 -0.5610681651 0.6174400400 -0.5513350263 0.6796787943 -0.6364907708 -0.3645767893 0.1152707004 -0.2602858635 -0.9586260663 0.2785775122 -0.2555922103 -0.9257792349 -0.1151304244 -0.6947379790 0.7099888209 -0.1319846324 -0.1364317946 -0.9818179170 0.1889918997 -0.3259893341 0.9262899200 0.1771374274 -0.3355339846 0.9252239064 -0.3538974503 0.6917213740 -0.6295062632 -0.5815554615 -0.3308928836 0.7431710064 -0.6850122220 -0.6446811777 0.3393293899 -0.3519597653 0.0409980356 -0.9351168294 0.2481193540 0.1400651970 -0.9585502213 0.6234850521 0.3239603072 -0.7115589288 0.9444722671 -0.0566730206 0.3236669669 0.9482910746 0.0855581853 0.3056531283 -0.4734710811 0.6020978136 -0.6428867383 -0.5584084706 0.4656546588 0.6865462248 -0.4312449759 0.6832494358 0.5892350798 0.1343164025 0.8425420712 -0.5216147642 -0.6365656448 -0.7534978852 0.1643931778 0.0926932071 -0.3335341382 0.9381699995 0.0489978754 -0.2190347445 0.9744860127 0.3163062830 0.5396141105 -0.7802351870 0.7737777273 0.4542860082 0.4414660254 0.3336498776 0.5760569534 -0.7462145440 0.2731725929 0.6214754839 -0.7342649095 0.8864798255 0.4479935736 -0.1159968838 -0.3029237765 -0.8435894008 -0.4433893418 -0.2974525228 0.9482576676 0.1110377976 -0.3437131086 0.8246687767 0.4492023015 -0.8803523599 -0.1147581603 -0.4602285161 -0.2751925073 -0.8528871394 -0.4436807539 -0.0722255319 -0.8079354482 -0.5848279953 -0.2014295390 0.9574089058 0.2068678994 -0.5934931334 0.7299779377 0.3389662389 -0.3922027862 -0.5327724321 0.7498869982 0.3396597140 0.5385661049 -0.7710887299 0.3862866033 0.5406392678 -0.7473231177 0.3396449423 0.5385652231 -0.7710958524 0.3396409656 0.5385649856 -0.7710977699 0.1126234091 -0.4601017004 0.8806942676 0.1108304760 -0.4528052353 0.8846943113 -0.0838081839 -0.9413547270 -0.3268447127 0.7067002069 -0.6148235588 -0.3500954287 0.4599585277 -0.3548456123 -0.8139550014 -0.2235058657 0.1352023209 0.9652799907 -0.2231788653 0.1347967684 0.9654123603 -0.2230393213 0.1346241005 0.9654687010 -0.2232258724 0.1348550600 0.9653933513 -0.2225745557 0.1340473995 0.9656561820 -0.2236665570 0.1354016222 0.9652148320 -0.2227675641 0.1342870414 0.9655783774 -0.2224645840 0.1339110422 0.9657004409 -0.1802068605 0.0818504961 0.9802173145 -0.2226731113 0.1341809390 0.9656149135 -0.2226578685 0.1344140896 0.9655860014 -0.2230711721 0.1349934631 0.9654097664 0.1669224682 -0.3145202175 -0.9344591604 -0.2215170613 0.1354732707 0.9657003596 0.2534592928 -0.2169792899 -0.9426973929 0.2505244103 -0.2101579641 -0.9450244177 0.4823453483 -0.3851675523 -0.7867584900 0.7374706752 0.4353331677 0.5163545645 0.4636775518 0.3371315263 -0.8193567367 0.8230553118 -0.5670212746 -0.0326623319 0.2197736282 -0.1326029023 -0.9664967784 0.2253285922 -0.1300535662 -0.9655636154 0.2248753093 -0.1264202720 -0.9661516496 0.2037532215 -0.0979193681 -0.9741131464 0.2245801151 -0.1254476313 -0.9663470721 0.1756549814 -0.7374293066 0.6521835212 0.1958805019 0.1959951980 0.9608416682 -0.0155782555 0.4234320042 -0.9057939367 -0.0707334025 0.3607699471 -0.9299687258 -0.1004542926 0.3256068929 -0.9401537568 -0.0743051329 0.1549387147 -0.9851257493 -0.3376762773 0.8585540680 0.3858233327 0.1560715324 -0.5231909682 0.8378024156 -0.3066320532 -0.9367103235 -0.1689690913 0.9258873924 0.1042656121 -0.3631270008 0.5340553127 0.5979768527 0.5976693121 -0.6750401237 -0.6277275350 -0.3876583202 -0.9195452914 0.3290250896 -0.2148928745 0.0689903666 -0.6885787175 0.7218723427 0.0714557141 -0.6715884325 0.7374707168 0.0633670065 -0.3692010371 0.9271867216 0.4348808807 0.8794768036 -0.1933886541 -0.3197014330 -0.5167987372 -0.7941725625 0.2726844844 0.5234836312 -0.8072224352 -0.0187499801 0.0079276450 0.9997927739 -0.0187598832 0.0079579113 0.9997923477 0.0753902481 -0.0381782484 0.9964229683 0.2195190698 -0.5921837715 -0.7753255824 -0.1204670577 0.3287104215 -0.9367161506 -0.1204802425 0.3287212884 -0.9367106414 0.2194905203 -0.5919958144 -0.7754771868 -0.1204919120 0.3287309059 -0.9367057652 0.1357934918 -0.0261347060 0.9903923994 0.2192801570 -0.5917297244 -0.7757397411 0.2181298339 -0.5917907611 -0.7760174422 -0.3180725794 -0.8153299484 0.4838046191 -0.2059587565 0.1752067310 0.9627479380 -0.8647628526 0.4792099296 -0.1501434383 -0.0545663623 0.3320563508 0.9416799307 -0.6879676535 0.4288339189 -0.5854929357 -0.0387109587 -0.7615604318 -0.6469367592 0.1347051658 -0.2781028724 -0.9510590469 0.6640553888 0.3246293776 -0.6735326330 -0.2386434541 -0.2963078734 0.9247977865 -0.1923055060 -0.3520408847 -0.9160162705 -0.1771667172 -0.3510669439 -0.9194367598 -0.1801703239 -0.3565749024 -0.9167295094 -0.8774163618 0.4309647050 0.2107366864 -0.5001474595 0.4190881573 -0.7577714927 0.5889338004 -0.5446834324 -0.5970568962 0.2175327916 -0.1596516788 -0.9629074857 0.9732601371 0.2297017405 0.0013475697 -0.6193199989 0.5275379740 -0.5815035898 0.9097936106 -0.4077799913 0.0774019682 0.6530877225 0.0527850961 -0.7554403751 0.1090798985 0.9771208510 0.1825826343 -0.6847306917 -0.2364572946 0.6893706026 -0.6894301894 -0.2314271546 0.6863872712 -0.6822145356 -0.2397826022 0.6907153039 -0.6643657288 -0.2351705845 0.7094455403 0.4877477077 -0.4803059262 -0.7289776341 0.7528399122 -0.6492569533 -0.1081548664 0.0332295197 0.4261961084 0.9040202853 -0.6546360881 0.4065005868 0.6373451695 -0.0727338725 -0.4846294659 -0.8716903490 -0.5033515195 -0.6987138483 0.5083662125 0.3390145158 0.2884260188 -0.8954772972 -0.2373867352 0.0128334006 -0.9713304493 -0.2615758563 -0.0587916571 -0.9633906853 0.7522835101 0.2694544350 0.6012186190 0.1439987080 -0.6094714369 0.7796210231 -0.4401296336 0.8365768869 0.3262284750 0.2696946618 0.7976524510 0.5394583921 0.2716270105 0.8386184531 0.4721629564 0.2090921409 0.6355629470 -0.7431959479 -0.3845829380 0.7536677522 -0.5329923856 -0.2919736950 0.6684407084 0.6840602172 -0.2518863089 0.6666800362 0.7014919934 -0.8247789477 0.4462221047 0.3473118493 -0.1772991394 0.9573737093 0.2280363916 0.3002250824 0.5922460196 -0.7477362852 0.2806539279 0.5827383711 -0.7626594021 -0.2984381169 0.4463303157 -0.8436373271 -0.3000401559 0.4872091378 -0.8201238692 -0.1923666871 -0.5414370966 0.8184381028 -0.1957704401 -0.5312648106 0.8242764316 -0.4403369391 0.6284751193 -0.6411882753 0.0843772684 0.9896447654 0.1161193989 -0.6559035795 -0.6631176487 0.3606459183 -0.6477021092 -0.7391633367 -0.1847147512 0.6216546402 -0.6939957838 -0.3632015423 -0.4376966635 0.6554045499 -0.6155213292 -0.1216530668 0.3523899291 -0.9279126409 -0.2329510590 0.2568631653 -0.9379526206 -0.4786190166 0.7628192798 -0.4347764750 -0.1737052777 0.6567062003 0.7338688187 -0.7734226093 -0.6004257909 -0.2032396049 -0.7640757133 -0.6230912550 -0.1671693523 0.2986764109 0.2188549759 -0.9289213643 0.2974137015 0.2166321210 -0.9298470919 -0.2439368493 0.3579370328 -0.9013189747 0.3978104287 0.4542197781 -0.7971394207 0.3423441682 0.4963769271 -0.7977533558 -0.3679627373 0.7958013435 0.4809403765 -0.3649441725 0.8040808218 0.4693290775 -0.8854929456 0.3731738392 0.2768456771 -0.8869885846 0.3678066385 0.2792302410 0.0322017929 0.0956254342 -0.9948963870 0.0299018561 0.0983270360 -0.9947048170 0.0681916746 0.0531660493 -0.9962546194 0.0336684467 0.0939409205 -0.9950083111 0.0706222543 0.0502749489 -0.9962353772 0.0314980638 0.0964982176 -0.9948346425 0.0697306948 0.0513382367 -0.9962439539 -0.9735286327 0.2172804282 0.0709310717 -0.4238754472 -0.7489771609 -0.5092767595 0.4890280204 -0.6031937484 0.6300864204 0.0011442662 0.0684544167 -0.9976535889 0.1759360059 -0.2961182075 -0.9388080363 0.5084298159 -0.3526618305 -0.7855754296 0.1803344285 -0.9835925157 -0.0050256246 0.9711371857 -0.0971638083 -0.2178342511 -0.2651212288 -0.9614119944 0.0734691159 -0.2908604410 -0.5680926468 0.7698512509 0.6003705509 -0.1235687757 -0.7901176870 0.4877572067 0.4212442230 0.7646216135 -0.0680092662 -0.9155789178 -0.3963457896 -0.1219597658 0.3803751685 -0.9167554454 0.3198537010 -0.2090730771 0.9241114967 -0.6040748899 -0.0347641041 -0.7961689421 -0.2391616977 -0.6359411695 0.7337441729 -0.2315509337 -0.6370171591 0.7352505043 0.8045643943 -0.5925166314 0.0400022118 0.5654655346 -0.0073253131 0.8247393945 0.0996623231 0.7560919738 0.6468325506 -0.1534729231 0.6421882258 -0.7510261943 0.7465937434 0.1815142507 -0.6400393418 0.1414894414 -0.5278149279 -0.8374915760 -0.6001571793 -0.5560273048 -0.5750173880 -0.2655263889 0.5367721376 -0.8008566720 -0.8479719071 -0.3158351460 -0.4256663075 -0.7710805491 -0.1248551804 -0.6243764656 0.3590319229 0.2544337215 -0.8979752556 0.3518007180 0.2536802884 -0.9010452631 0.3589468134 0.2544588355 -0.8980021638 0.4646789145 -0.0593361432 0.8834889521 -0.0937047953 -0.1858329527 -0.9781030237 -0.0848849373 -0.1981132388 -0.9764966421 -0.1139215905 -0.6161857784 -0.7793182647 0.0885966069 0.1653919469 0.9822403703 0.7157453325 -0.2994765915 -0.6308901570 0.8781439120 0.0218801057 0.4778959413 0.4081418471 0.9091583503 -0.0827727412 0.9198167539 -0.1472112770 -0.3636839000 0.4277958648 0.5480232569 -0.7187914913 0.4394609306 0.5374380100 -0.7197461190 -0.0485476891 -0.6506536363 0.7578211976 -0.0481459615 -0.6506583786 0.7578427546 -0.0497884866 -0.6508238344 0.7575945111 -0.0495905834 -0.6508273553 0.7576044664 -0.0496828061 -0.6508522431 0.7575770432 0.3639490124 -0.0156217623 -0.9312878593 0.9432777423 0.2503003811 -0.2181211132 -0.4285673513 0.5269222848 0.7339502239 -0.4289583763 0.5264966577 0.7340272344 -0.4345217841 0.5250931385 0.7317568005 -0.7262207325 0.3025978760 0.6172827335 -0.0362767032 0.2405712754 -0.9699533299 0.0041148460 0.2892708514 -0.9572384460 0.0163382924 0.3096403247 -0.9507133793 0.2013725082 0.3973491814 -0.8953003636 0.1078229408 0.8494468942 -0.5165405961 -0.3692984577 -0.1432377076 -0.9182056459 -0.2699966611 0.0784212989 -0.9596623900 -0.3530757380 -0.2887007111 0.8899378757 -0.3215939503 -0.9253112449 -0.2009388742 0.2932617076 -0.5837298768 -0.7571373731 -0.0298859141 -0.6451723335 -0.7634523510 0.2668480817 0.3720002861 -0.8890488673 0.3191520876 0.1144566247 -0.9407665098 -0.3964103201 0.0135434649 -0.9179735468 -0.3971596824 0.0123358105 -0.9176666140 -0.3732025122 0.0502642274 -0.9263872799 -0.3734200275 0.0499728973 -0.9263153851 0.1842373923 -0.3894895326 0.9024159170 -0.2693479811 0.0358333856 -0.9623760354 -0.2119662420 0.0192433400 -0.9770875120 -0.0860994723 -0.1622355711 0.9829885556 0.6305972965 -0.6961002886 -0.3432075727 0.6343277098 -0.6934438347 -0.3417074841 -0.2452337822 0.8945660736 -0.3736468012 -0.4035216304 0.9128098251 0.0628372270 -0.5503013778 -0.7400321457 0.3866792172 0.1735311345 0.3615622809 -0.9160565825 0.1744387163 0.3463884362 -0.9217299960 0.3688405872 -0.7351879611 -0.5687312925 -0.4895640110 -0.5444993959 -0.6810634970 0.0874870847 0.4826734726 0.8714197203 0.0729857939 0.4577581919 0.8860759063 0.2545775270 0.7718852373 -0.5825662737 0.2177954250 0.8018488436 -0.5564203311 -0.1614218671 -0.9838733545 0.0770467597 -0.0928358743 0.9011147074 0.4235254238 -0.4452327535 -0.8639920607 -0.2351287186 0.7007693828 -0.1018075459 0.7060860399 0.7781032067 -0.0149209277 0.6279592070 -0.1273928358 -0.6337173522 0.7630028722 -0.1228803491 -0.6298740912 0.7669152816 -0.1273616688 -0.6337424671 0.7629872153 -0.1228502248 -0.6299735363 0.7668384223 -0.1229073303 -0.6300215088 0.7667898582 -0.0930061189 -0.6040540001 0.7914977112 -0.1220053500 -0.6310542954 0.7660843105 -0.0935483319 -0.6037204641 0.7916882662 -0.0934269734 -0.6036250533 0.7917753442 -0.0310404043 0.6016996737 0.7981190362 0.5127644884 0.8091969284 -0.2868325478 0.9208300152 0.2509976248 0.2984497871 -0.0789518561 0.2649969602 -0.9610115585 -0.0745182171 0.2682608510 -0.9604598644 -0.0701947857 0.2713703171 -0.9599118934 0.3275274754 0.4936626021 -0.8056196299 0.6858937081 0.7189466133 0.1125414962 -0.1523939166 -0.6449717984 0.7488574454 -0.1524420528 -0.6449497757 0.7488666152 -0.1524555155 -0.6449474324 0.7488658927 -0.1524074126 -0.6449529503 0.7488709318 -0.1524380483 -0.6449494441 0.7488677160 -0.1524580177 -0.6449471226 0.7488656501 -0.1524547668 -0.6449474970 0.7488659894 -0.1523882562 -0.6449551562 0.7488729304 -0.1524032881 -0.6449534253 0.7488713621 0.0626320664 0.755249219