<?xml version="1.0"?>
<VTKFile type="UnstructuredGrid" version="0.1" byte_order="LittleEndian">
  <UnstructuredGrid>
    <FieldData>
      <DataArray type="Float32" Name="TIME"  NumberOfTuples="1" format="ascii"> 4.4000000000 </DataArray>
      <DataArray type="Int32"   Name="STEP"  NumberOfTuples="1" format="ascii"> 440000 </DataArray>
    </FieldData>
    <Piece NumberOfPoints="400" NumberOfCells="400">
      <Points>
        <DataArray type="Float32" NumberOfComponents="3" format="ascii">
 0.4248653279 0.2068251851 0.0759428327 0.5299832392 0.1286325103 0.0400907206 0.5050732888 0.1472905775 0.1825916145 0.6403307039 0.1082661132 0.1124597235 0.5396123740 0.3646965332 0.2040005115 0.5528625017 0.3591023140 0.2072263986 0.5678908065 0.4472842210 0.1939267869 0.7522014518 0.1787389324 0.1457377753 0.7585132269 0.1855914552 0.1501548234 0.6781370336 0.4551487928 0.1694658548 0.8496087980 0.2321590772 0.1150672261 0.7816290866 0.3733975213 0.0369726614 0.7953317237 0.3703145473 0.0373491975 0.8168259550 0.3857433352 0.0431749900 0.8042875013 0.3963505280 0.2240354916 0.8177013221 0.3880442262 0.2261939739 0.8970056048 0.3686628308 0.1723158885 0.7489577145 0.3245510908 0.6726885036 0.7715937362 0.2992914540 0.6582628201 0.7860264183 0.3638996325 0.5621513312 0.8677399867 0.6052379817 0.5111381010 0.9118154652 0.5556479415 0.5587194741 0.8933347202 0.6065772778 0.4947004802 0.9262234375 0.5446453564 0.5458334907 0.9417328195 0.3093612732 0.5254663043 0.9349241376 0.3343196175 0.5344031005 0.9466583903 0.4740611899 0.4508192007 0.2426831811 0.7997981543 0.0414070544 0.2550042656 0.8173391389 0.0914574868 0.0745409183 0.9091235696 0.1097901502 0.1543236848 0.7223194362 0.0815085764 0.0388482254 0.8885766763 0.1662302752 0.0554833017 0.8047838362 0.1553460585 0.0622454515 0.7985057492 0.1588803452 0.1716657889 0.7198410593 0.1453822839 0.1846703646 0.8263777230 0.1958309554 0.5696628447 0.7614158934 0.2455269984 0.6836959296 0.7584631343 0.2617670561 0.6518273058 0.7389198883 0.1620806534 0.7064500109 0.8129145018 0.2796418043 0.6573955084 0.7424564013 0.1621259263 0.6559152578 0.7439888102 0.1560627248 0.6050544979 0.8504648164 0.2446689298 0.6094913889 0.8548459342 0.2417824116 0.5207963273 0.7623147406 0.0984627226 0.7326507576 0.8581094533 0.2193672459 0.7273897312 0.8568455948 0.2066725478 0.5647764056 0.8549310672 0.1613300842 0.5655440907 0.8555397867 0.1539494122 0.1730880515 0.4807040687 0.3236699825 0.1676981271 0.4846857101 0.4415921818 0.1372092946 0.6603892772 0.2434469453 0.0843620569 0.6890418782 0.2636710600 0.1610016940 0.6613731540 0.2414226294 0.2576849525 0.4522145292 0.3447856960 0.2908211147 0.4616808943 0.4187209650 0.2909889098 0.5655091516 0.4523281374 0.3086336202 0.4589966388 0.2813312192 0.1182088860 0.7733037996 0.4080899143 0.2713210698 0.7854265141 0.2555507389 0.4240761875 0.5343442746 0.4164808603 0.4308569035 0.5455603206 0.4205655511 0.2460008504 0.8876087590 0.3715553334 0.3711237304 0.8402716902 0.4486931201 0.3884544606 0.8571709706 0.4473813601 0.4440475538 0.9114116179 0.2749309936 0.5616933193 0.7792374907 0.4616562124 0.7554631742 0.3393614694 0.5253680186 0.7491423202 0.3251156585 0.5221870328 0.7310392621 0.1923224976 0.5211132143 0.6605267490 0.0750020634 0.2089066518 0.6490921815 0.1078240838 0.2421729969 0.6082326409 0.1071847943 0.3161804824 0.5368084088 0.0942196976 0.3297715515 0.6497666972 0.8867023674 0.4452710359 0.6558279666 0.9007451115 0.3525091193 0.6572073999 0.9097057330 0.3464140095 0.7437353399 0.9446357334 0.5283421376 0.6975288446 0.9102989809 0.3310050822 0.7118970101 0.2412321700 0.2823339804 0.6923340770 0.1618250951 0.4376719393 0.7639626534 0.3793129261 0.3440296557 0.7707361222 0.3872252049 0.3523735910 0.5690856813 0.3189431067 0.3113888463 0.5335515218 0.2357772996 0.4478713645 0.4819229978 0.2672510687 0.3471237627 0.4709348506 0.3273644601 0.5039583799 0.4582437927 0.3355684020 0.5055500299 0.3861281153 0.4139791865 0.4441321710 0.5795575454 0.5972596948 0.5628788316 0.1272840792 0.2954920184 0.0794078222 0.1210212698 0.2920254706 0.0845414540 0.1781403535 0.3772358717 0.0528339042 0.1491839223 0.4388042355 0.0568121690 0.0950510988 0.4146552138 0.1045545268 0.2077569862 0.4386272947 0.0527655735 0.1964209143 0.4344283927 0.0567129630 0.2718643822 0.5419336657 0.0599524715 0.1116350181 0.4730195572 0.1348031591 0.1123438091 0.4827923872 0.1420335102 0.1047361930 0.4920111759 0.1450385791 0.0995440503 0.5073281527 0.1534455449 0.1196634914 0.6091642532 0.0768631000 0.1243074438 0.6141213438 0.0785438348 0.0731065456 0.6660885478 0.2039455545 0.0764847522 0.6738817162 0.1942220215 0.1368993259 0.3952856280 0.2410302090 0.2422133748 0.3041289952 0.2229843569 0.2365967338 0.2958150421 0.2228485644 0.2487070052 0.3044898370 0.2244119139 0.2293356681 0.2902092152 0.2219681916 0.2433833257 0.2948293129 0.2245373943 0.2197446188 0.2869282763 0.2202321579 0.2548633857 0.3066654622 0.2255146605 0.2368435454 0.2880811854 0.2239870841 0.2496214693 0.2953273873 0.2258876622 0.2609601281 0.3107895433 0.2263359681 0.2673068131 0.3172670240 0.2268945650 0.2743127426 0.3269065197 0.2271854597 0.0603281851 0.3238592176 0.2405524159 0.2818533907 0.3248940135 0.2291693785 0.2734196520 0.3270487936 0.3139744034 0.2819440443 0.3344277002 0.3145354456 0.0744061946 0.2508626287 0.2704874187 0.0724365993 0.1488441114 0.2300772738 0.1130165525 0.0685983596 0.2994130665 0.1289107560 0.0610859967 0.3107436599 0.2422534231 0.1318701848 0.3407275373 0.2508579586 0.1370575464 0.3419974586 0.2667438412 0.1556163051 0.3433603633 0.2741729816 0.1652457207 0.3438922365 0.2824441163 0.1696902126 0.3451599054 0.8679178747 0.1866464433 0.4388063294 0.8336807696 0.1057840468 0.4125785282 0.7587833369 0.1533908151 0.5977295987 0.7548288049 0.1422540129 0.5935165344 0.7470141696 0.1331146351 0.5912833684 0.2973184063 0.2801240700 0.5031614951 0.2898205055 0.2700269985 0.4140874503 0.2535001275 0.3450425854 0.3698630526 0.3102816150 0.3803418569 0.4286199167 0.6312896965 0.7388025084 0.5144392714 0.6934332220 0.6467628650 0.3835488139 0.7179972541 0.8411229966 0.5228724466 0.7601125070 0.7119194823 0.4431574293 0.7150675356 0.7763953549 0.3773380959 0.7224914284 0.7765642137 0.3764745803 0.7217484578 0.7830361344 0.3798928212 0.5481880471 0.5178810912 0.2034166139 0.6016770251 0.5231818553 0.2544421623 0.6024649058 0.5427589060 0.2596856535 0.6200436268 0.5473504148 0.0836204698 0.6262678723 0.5623854666 0.0836988330 0.6399068173 0.5592325639 0.0832588570 0.7413567024 0.6640248131 0.2510471088 0.8187175450 0.4748237603 0.2427188206 0.8265617708 0.4850382036 0.2453613264 0.7524094040 0.6663459308 0.2524260053 0.8342694364 0.4949640908 0.2478052601 0.7588455915 0.7526339310 0.1137497191 0.7644306698 0.6690104479 0.2538321613 0.7782259348 0.6723032592 0.2552956152 0.8026217403 0.7665641719 0.1615337444 0.8794310739 0.6238429255 0.0942661877 0.9217431053 0.5592534261 0.1912942854 0.8981104053 0.6354671221 0.0942526549 0.9265941746 0.6781194982 0.2684887936 0.9125151750 0.7262491197 0.2334566655 0.9396906824 0.6711484472 0.2630037682 0.3658526596 0.5765588712 0.0833477163 0.4803348848 0.7324424550 0.0279598778 0.4430329474 0.6659639913 0.0961069954 0.4495917121 0.6639640980 0.0952665772 0.4523357335 0.6598793426 0.0965930875 0.3894146325 0.1711524281 0.4216737837 0.3343298399 0.0835969641 0.4717569672 0.1711624660 0.1840705431 0.3885515372 0.2163979749 0.1306975769 0.4587596043 0.1403164147 0.0872431502 0.4244189780 0.9285704896 0.4500576656 0.5810538256 0.2542664243 0.1549628256 0.0768235125 0.2905349970 0.1241718849 0.1289598741 0.3212512028 0.0796909420 0.1134317957 0.3626134090 0.1664948259 0.0989905186 0.3618114324 0.1720327766 0.1001069528 0.3650571111 0.1699174479 0.1024747146 0.3680817193 0.1736261007 0.1065971017 0.3291197555 0.2036815051 0.1572354224 0.3370098249 0.2091287319 0.1616358234 0.0617466527 0.1503424454 0.5058001764 0.1851544326 0.1663338496 0.5386192855 0.1499010400 0.2658906633 0.5712995457 0.1483449064 0.2522243407 0.4787909901 0.0408593916 0.9382737333 0.1632795954 0.1579120857 0.9508841317 0.1726204362 0.1685811795 0.9468865176 0.1683303288 0.4623075727 0.4848406713 0.1661080751 0.4577480348 0.4752227187 0.1662387465 0.5258208133 0.3954498448 0.2669789523 0.8807305416 0.5610002826 0.0484157333 0.8724848364 0.5657487468 0.0455650853 0.8788721860 0.5639568425 0.0436097635 0.9528858607 0.5564837959 0.0824622505 0.0848615894 0.9509146130 0.2972595248 0.0909308099 0.9527344055 0.2984105118 0.1709227800 0.9291512132 0.3642656307 0.7712013072 0.0774324744 0.2849991118 0.7320444960 0.0975390735 0.3049635116 0.7245536082 0.0995460967 0.3031239718 0.8351613083 0.1252678968 0.3223784425 0.8416794617 0.1387115992 0.3278998436 0.7707172876 0.1908857726 0.2038467234 0.7747344563 0.1947187830 0.2066772257 0.3426272663 0.1902180022 0.5344579481 0.3550225349 0.1906348535 0.5362015697 0.4139997635 0.2829447220 0.5664133644 0.9549010395 0.6061796491 0.3610204099 0.8663829398 0.6117986016 0.4001127277 0.8999172468 0.4790677607 0.3659220866 0.9022702612 0.4738061491 0.3628361111 0.8960225374 0.4718838852 0.3635566971 0.9027217385 0.3807539521 0.2926231022 0.8058051390 0.0773916158 0.5900191780 0.3432511063 0.9113997480 0.0686959218 0.3482564427 0.9041869609 0.0728549161 0.2973774926 0.8399041493 0.0897858181 0.2988439316 0.8343471732 0.0890977340 0.8006524768 0.6605803197 0.3595345842 0.6844026036 0.6155008006 0.3399598794 0.6751676707 0.6201203889 0.3384222969 0.1505752599 0.9040894892 0.4534406303 0.1568606536 0.9069184548 0.4543829464 0.1183440850 0.9135209054 0.2299884720 0.1206153367 0.9131855787 0.2376250637 0.2538576222 0.3186004726 0.1147664627 0.2556204039 0.3240388256 0.1154066648 0.2607364445 0.3190390079 0.1151260661 0.2621690620 0.3245771976 0.1156873311 0.2673286297 0.3190364133 0.1154432883 0.2631780217 0.3301133674 0.1161661415 0.2685365747 0.3247190036 0.1158618708 0.3468123617 0.2670681584 0.0577853469 0.2798047973 0.4118685087 0.0597694553 0.1971452200 0.4195477887
[...]
      <PointData Scalars="overlap">
        <DataArray type="Float32" Name="overlap" format="ascii">
 0.0002254482 0.0000175613 0.0002059026 0.0000272519 0.0000866274 0.0000334215 0.0000068561 0.0000517375 0.0002479452 0.0002508532 0.0001091412 0.0000486791 0.0000729633 0.0004923875 0.0000270904 0.0002312908 0.0000930532 0.0000060482 0.0000061280 0.0001282804 0.0000225555 0.0000492701 0.0000314220 0.0000303137 0.0000236857 0.0000097076 0.0001206892 0.0000834286 0.0001927050 0.0001200544 0.0000300902 0.0000288914 0.0000077035 0.0000869560 0.0002830908 0.0000288676 0.0001997359 0.0000835130 0.0000472257 0.0000982744 0.0001042032 0.0001686735 0.0000241797 0.0000127790 0.0001833828 0.0000524741 0.0000014642 0.0000530479 0.0001662500 0.0000602509 0.0000791632 0.0002214956 0.0000634488 0.0000342052 0.0000158771 0.0000084184 0.0000551456 0.0002890750 0.0001526250 0.0000510706 0.0001171911 0.0000167946 0.0000946398 0.0000952236 0.0000257664 0.0003202998 0.0000194385 0.0000906168 0.0000907681 0.0000192411 0.0000292119 0.0000607671 0.0000072545 0.0000863987 0.0000182937 0.0000016502 0.0000080783 0.0000088448 0.0000386001 0.0001858844 0.0000087965 0.0000307652 0.0002618138 0.0001148585 0.0000374033 0.0001252033 0.0000100174 0.0000137034 0.0000040860 0.0000158798 0.0000165750 0.0000396826 0.0000070416 0.0000394734 0.0000271443 0.0001011605 0.0001228919 0.0000461406 0.0000056141 0.0000080762 0.0000275820 0.0000245277 0.0000821972 0.0000444966 0.0000529224 0.0000486224 0.0000602431 0.0000762372 0.0000621871 0.0000974477 0.0000384753 0.0000569111 0.0000137711 0.0001103792 0.0000157810 0.0000254303 0.0001251314 0.0001384097 0.0001234286 0.0000800071 0.0001383275 0.0000157542 0.0000303145 0.0000371248 0.0000325252 0.0000592119 0.0000283513 0.0000085750 0.0000406235 0.0001086457 0.0000464171 0.0000186921 0.0000024607 0.0000396156 0.0000015877 0.0000123540 0.0000048978 0.0000335341 0.0000389807 0.0000605445 0.0000185502 0.0000168077 0.0000082868 0.0000067492 0.0000121387 0.0000222492 0.0000203323 0.0000126752 0.0000104299 0.0000258657 0.0000088584 0.0001699948 0.0000140779 0.0000454840 0.0000110886 0.0000460777 0.0001709560 0.0000240914 0.0001046262 0.0002023955 0.0000361825 0.0000389119 0.0001534236 0.0000029923 0.0000397559 0.0002877806 0.0000076059 0.0000180396 0.0000144750 0.0000432028 0.0000044363 0.0000130845 0.0000080346 0.0000748261 0.0000377167 0.0000595174 0.0000612128 0.0000358721 0.0000602982 0.0000172531 0.0000352064 0.0000000968 0.0000570613 0.0000125349 0.0000175028 0.0000518344 0.0000190674 0.0000527962 0.0000302557 0.0000299908 0.0000204883 0.0000078354 0.0000285157 0.0000113659 0.0000229038 0.0000146328 0.0000044511 0.0000260061 0.0000156789 0.0000056503 0.0000674647 0.0000368400 0.0000021021 0.0000126795 0.0000078366 0.0000000328 0.0000400704 0.0000106005 0.0000493248 0.0000639762 0.0000374374 0.0002482243 0.0000716780 0.0000078596 0.0000103649 0.0000072355 0.0000071630 0.0000118333 0.0000366653 0.0000338204 0.0000538547 0.0000648685 0.0000026795 0.0000081199 0.0000882505 0.0000310340 0.0000607586 0.0000853778 0.0000025854 0.0000075048 0.0000559146 0.0000901615 0.0000004527 0.0000287269 0.0000797153 0.0001170195 0.0003507285 0.0003214553 0.0000396536 0.0000254594 0.0001376005 0.0001622982 0.0000229764 0.0000388293 0.0000069756 0.0000152583 0.0000603403 0.0000176599 0.0000220246 0.0000122192 0.0000311844 0.0000745350 0.0000535546 0.0000058153 0.0000330736 0.0000231432 0.0000208201 0.0000334510 0.0000189524 0.0000232486 0.0000275664 0.0000620188 0.0000031610 0.0000056614 0.0000215486 0.0000014154 0.0000081374 0.0000690153 0.0002011126 0.0001004373 0.0000705392 0.0000618169 0.0000254357 0.0000532696 0.0000846120 0.0000197295 0.0000507372 0.0000228394 0.0001329033 0.0000053299 0.0000218290 0.0000399383 0.0000061473 0.0000000074 0.0000135034 0.0000074005 0.0000122361 0.0000692729 0.0000459142 0.0000086367 0.0000062402 0.0000203580 0.0000509172 0.0000422297 0.0000043856 0.0000223426 0.0000264532 0.0000096569 0.0000019084 0.0000134148 0.0000581636 0.0001163336 0.0000069986 0.0000207926 0.0000300914 0.0000081657 0.0000234772 0.0000218468 0.0000728754 0.0000744957 0.0000794955 0.0000090576 0.0000791764 0.0000033706 0.0000339499 0.0000164322 0.0000035716 0.0000090499 0.0000222103 0.0000323654 0.0000314953 0.0000289931 0.0000209381 0.0000060222 0.0000219310 0.0000137049 0.0000218595 0.0000040617 0.0000588758 0.0000081305 0.0000051561 0.0000114560 0.0000607099 0.0000875534 0.0000141781 0.0000074926 0.0000051284 0.0000504104 0.0000602027 0.0000344008 0.0000376418 0.0000593789 0.0000512596 0.0000147028 0.0000058919 0.0000104518 0.0000042834 0.0000066185 0.0000086469 0.0000098016 0.0000055036 0.0000459202 0.0000166859 0.0000076911 0.0000326989 0.0000234052 0.0000008027 0.0000054429 0.0000595069 0.0000461443 0.0000197417 0.0000226503 0.0000419137 0.0000146781 0.0000079923 0.0000069473 0.0000337324 0.0000269872 0.0000105496 0.0000221022 0.0000404467 0.0000195023 0.0000138822 0.0000139294 0.0000066335 0.0000151972 0.0000080286 0.0000101003 0.0000157185 0.0000150062 0.0000045971 0.0000049604 0.0000516938 0.0000115920 0.0000606857 0.0000295945 0.0000317343 0.0000089213 0.0000186942 0.0000046258 0.0000027727 0.0000038990 0.0000651264 0.0000061789 0.0000313726 0.0000109354 0.0000235817 0.0000130745 0.0000245734 0.0001357557
        </DataArray>
        <DataArray type="Float32" Name="contact normal" NumberOfComponents="3" format="ascii">
 0.9747540956 -0.1893219042 -0.1183708992 0.1555834355 0.9312608221 0.3294648324 -0.0006369214 0.6164472427 -0.7873959559 -0.2103089447 0.7157920561 -0.6658917932 0.1103544691 -0.0480232019 -0.9927314154 0.2338323495 -0.1107059613 -0.9659537372 0.5992119431 -0.7720012610 -0.2120356108 -0.3785366810 0.6351391807 -0.6732816663 -0.3288792816 0.6782702207 -0.6571057189 -0.1641729168 -0.9501191271 -0.2651808772 -0.8558114254 0.4668467624 0.2228023889 -0.1400019270 -0.4491027120 0.8824433208 -0.1479977848 -0.4748777653 0.8675181633 -0.1169567485 -0.3830505916 0.9162932736 -0.0083271692 0.0626854608 -0.9979985928 0.0267979528 -0.0943921421 -0.9951743532 -0.8319754748 -0.0603922615 0.5515157151 -0.4684008183 0.3948318712 -0.7903850118 -0.3784755042 -0.4904521182 -0.7849923646 0.4266869949 -0.1496702305 0.8919288259 0.4063666852 -0.1798412008 0.8958366256 -0.6620656421 -0.1481323270 -0.7346603972 0.5876562130 -0.7239424525 0.3613412525 -0.6340795019 -0.2069748692 -0.7450534134 -0.0676157769 -0.3232670361 -0.9438890454 -0.7624903494 0.1937249077 -0.6173160676 0.3124918899 -0.0294192330 0.9494647584 -0.7342336372 -0.5295619976 0.4248117898 -0.7988491661 -0.6010994726 0.0227910918 -0.0013713896 -0.9554460557 0.2951625890 0.3770200255 0.7929086915 0.4786979291 0.3335774169 -0.6196467507 -0.7104674597 0.7209787502 0.5217133293 -0.4560754803 0.7537166136 0.4852913628 -0.4431744121 0.2852131974 0.6836283004 -0.6717929584 -0.4732852487 -0.4351839326 -0.7659086226 0.2186483585 -0.1884192873 -0.9574398506 -0.6235801436 0.7261396512 -0.2896014701 -0.5201705069 0.6631031545 0.5382535185 -0.1223008341 -0.0632382993 -0.9904763619 -0.3277454576 0.7301531389 0.5995492547 -0.7229380632 0.6861789506 0.0807403531 0.4062233496 -0.7683104807 -0.4946530051 0.4402999430 -0.7260667542 -0.5281695075 0.1714087578 0.2531740991 0.9521144434 -0.4363224659 -0.6609555021 0.6105411780 -0.9456342786 -0.3248614745 -0.0155188103 0.6139377070 -0.7892938415 0.0097838534 0.5989295052 -0.8008015828 0.0005222176 0.5472216799 0.8316357483 0.0945008744 0.4998133258 0.7781927143 -0.3802666679 0.0644270915 -0.3623458608 0.9298142971 0.7572566920 -0.0105229138 0.6530325954 0.1054407076 0.2946070703 0.9497836234 -0.1808946540 0.8143180083 -0.5515100231 -0.1033737688 0.6607665275 -0.7434389417 -0.0956939682 0.2005415238 -0.9750003906 -0.2508198488 0.5934734048 0.7647736405 0.4793120019 -0.4879173308 -0.7295181171 0.2611705407 -0.8734918922 0.4108550388 -0.4050176291 0.2950868632 -0.8653811087 -0.5610584019 0.6174385545 -0.5513466252 0.6796911249 -0.6364755277 -0.3645804128 0.1152653426 -0.2602556246 -0.9586349204 0.2785718542 -0.2555653605 -0.9257883498 -0.1151263117 -0.6947423057 0.7099852541 -0.1319869677 -0.1364038363 -0.9818214877 0.1889877251 -0.3259867400 0.9262916847 0.1771334948 -0.3355311609 0.9252256833 -0.3539188800 0.6917201414 -0.6294955698 -0.5815544763 -0.3308882889 0.7431738231 -0.6850145103 -0.6446753405 0.3393358602 -0.3519565381 0.0410005528 -0.9351179337 0.2481407480 0.1400607625 -0.9585453312 0.6234664406 0.3239895596 -0.7115619177 0.9444696162 -0.0566733475 0.3236746449 0.9482891182 0.0855576814 0.3056593388 -0.4734711623 0.6020837591 -0.6428998410 -0.5584211209 0.4656562963 0.6865348246 -0.4312473845 0.6832492703 0.5892335088 0.1343173996 0.8425387775 -0.5216198276 -0.6365627284 -0.7535025347 0.1643831591 0.0926947347 -0.3335351530 0.9381694878 0.0489944297 -0.2190272655 0.9744878669 0.3163035549 0.5396020110 -0.7802446609 0.7737810400 0.4542851307 0.4414611220 0.3336650019 0.5760545069 -0.7462096700 0.2731873280 0.6214740263 -0.7342606611 0.8864805997 0.4479905481 -0.1160026516 -0.3028575634 -0.8435977259 -0.4434187335 -0.2974539109 0.9482581684 0.1110298020 -0.3437147524 0.8246725576 0.4491941026 -0.8803494391 -0.1147573778 -0.4602342984 -0.2751897227 -0.8528883278 -0.4436801965 -0.0722186552 -0.8079357845 -0.5848283800 -0.2014317830 0.9574071741 0.2068737293 -0.5934965701 0.7299745419 0.3389675345 -0.3922068471 -0.5327753926 0.7498827709 0.3396742118 0.5385641258 -0.7710837258 0.3863006982 0.5406371220 -0.7473173843 0.3396594418 0.5385632442 -0.7710908478 0.3396554663 0.5385630068 -0.7710927648 0.1126276569 -0.4601059215 0.8806915191 0.1108347070 -0.4528094447 0.8846916268 -0.0838008312 -0.9413531130 -0.3268512464 0.7066996250 -0.6148227995 -0.3500979367 0.4599496125 -0.3548456668 -0.8139600154 -0.2235107147 0.1352057893 0.9652783821 -0.2231837160 0.1348002351 0.9654107548 -0.2230441738 0.1346275677 0.9654670966 -0.2232307224 0.1348585263 0.9653917456 -0.2225794108 0.1340508644 0.9656545820 -0.2236714036 0.1354050894 0.9652132226 -0.2227724186 0.1342905081 0.9655767753 -0.2224694393 0.1339145062 0.9656988421 -0.1802119969 0.0818538256 0.9802160922 -0.2226779667 0.1341844057 0.9656133121 -0.2226627215 0.1344175560 0.9655843998 -0.2230760225 0.1349969317 0.9654081606 0.1669279217 -0.3145203326 -0.9344581474 -0.2215218867 0.1354767259 0.9656987680 0.2534602055 -0.2169881293 -0.9426951129 0.2505253790 -0.2101668522 -0.9450221842 0.4823438482 -0.3851728110 -0.7867568352 0.7374708791 0.4353349737 0.5163527507 0.4636657726 0.3371332180 -0.8193627064 0.8230636139 -0.5670092997 -0.0326610099 0.2197706274 -0.1326068952 -0.9664969129 0.2253255432 -0.1300575842 -0.9655637858 0.2248722284 -0.1264242321 -0.9661518485 0.2037503199 -0.0979231539 -0.9741133728 0.2245770020 -0.1254515404 -0.9663472881 0.1756623304 -0.7374331358 0.6521772121 0.1958944850 0.1959948092 0.9608388968 -0.0155864864 0.4234287172 -0.9057953317 -0.0707419718 0.3607667191 -0.9299693263 -0.1004630268 0.3256036989 -0.9401539297 -0.0743245509 0.1549462857 -0.9851230937 -0.3376667749 0.8585548042 0.3858300109 0.1560666970 -0.5231847225 0.8378072166 -0.3066377440 -0.9367086812 -0.1689678684 0.9259250822 0.1042830006 -0.3630258916 0.5340535818 0.5979785927 0.5976691179 -0.6750187972 -0.6277586671 -0.3876450430 -0.9195220294 0.3290623486 -0.2149353579 0.0689832388 -0.6885768911 0.7218747660 0.0714475558 -0.6715854089 0.7374742608 0.0633535692 -0.3691975350 0.9271890343 0.4348695407 0.8794824020 -0.1933886944 -0.3197028854 -0.5168121531 -0.7941632474 0.2726961327 0.5234743863 -0.8072244955 -0.0187449130 0.0079262619 0.9997928799 -0.0187548185 0.0079565297 0.9997924537 0.0753949208 -0.0381804127 0.9964225319 0.2195163713 -0.5921856797 -0.7753248890 -0.1204684521 0.3287114558 -0.9367156083 -0.1204816358 0.3287223216 -0.9367100996 0.2194878215 -0.5919977260 -0.7754764913 -0.1204933042 0.3287319381 -0.9367052239 0.1357622602 -0.0261304959 0.9903967921 0.2192774555 -0.5917316412 -0.7757390427 0.2181271184 -0.5917926885 -0.7760167357 -0.3180950278 -0.8153416994 0.4837700554 -0.2059575801 0.1752053486 0.9627484412 -0.8647653359 0.4792056939 -0.1501426545 -0.0545669688 0.3320555061 0.9416801935 -0.6879621557 0.4288523980 -0.5854858607 -0.0387644375 -0.7615533054 -0.6469419459 0.1346701003 -0.2781240476 -0.9510578207 0.6640591809 0.3246336476 -0.6735268362 -0.2386589693 -0.2963343378 0.9247853030 -0.1922971757 -0.3520450015 -0.9160164371 -0.1771582818 -0.3510709378 -0.9194368602 -0.1801618871 -0.3565789182 -0.9167296055 -0.8774163558 0.4309651283 0.2107358459 -0.5001200429 0.4190703818 -0.7577994179 0.5889322499 -0.5446872941 -0.5970549025 0.2173893350 -0.1597342864 -0.9629261835 0.9732606358 0.2296996862 0.0013375497 -0.6193072775 0.5275620434 -0.5814953021 0.9097905612 -0.4077860064 0.0774061222 0.6530774834 0.0527681420 -0.7554504112 0.1091471307 0.9771428854 0.1824244650 -0.6847325676 -0.2364467065 0.6893723710 -0.6894325513 -0.2314161560 0.6863886072 -0.6822160759 -0.2397723157 0.6907173534 -0.6643678123 -0.2351599314 0.7094471204 0.4877507201 -0.4803109852 -0.7289722852 0.7528391645 -0.6492562023 -0.1081645790 0.0332318432 0.4261981184 0.9040192523 -0.6546885057 0.4063038676 0.6374167613 -0.0725617272 -0.4846462368 -0.8716953716 -0.5033496319 -0.6987159439 0.5083652012 0.3390215893 0.2884349215 -0.8954717517 -0.2373891831 0.0128342479 -0.9713298399 -0.2615768930 -0.0587885521 -0.9633905933 0.7522918276 0.2694454247 0.6012122497 0.1439923639 -0.6094786844 0.7796165291 -0.4401143614 0.8365796568 0.3262419756 0.2696938893 0.7976555391 0.5394542121 0.2716256505 0.8386198333 0.4721612872 0.2090925487 0.6355674334 -0.7431919965 -0.3845862923 0.7536646584 -0.5329943400 -0.2919859109 0.6684337204 0.6840618315 -0.2519001527 0.6666729095 0.7014937952 -0.8247879527 0.4462042199 0.3473134424 -0.1772998175 0.9573728240 0.2280395811 0.3002285605 0.5922477411 -0.7477335252 0.2806571463 0.5827399748 -0.7626569923 -0.2984530670 0.4463289763 -0.8436327470 -0.3000549815 0.4872077872 -0.8201192476 -0.1923628395 -0.5414394081 0.8184374780 -0.1957664166 -0.5312674586 0.8242756806 -0.4403098673 0.6284676723 -0.6412141652 0.0843758143 0.9896469903 0.1161014924 -0.6559091730 -0.6631180144 0.3606350728 -0.6477422147 -0.7391349792 -0.1846875900 0.6216303428 -0.6940205760 -0.3631957557 -0.4377228881 0.6553911976 -0.6155168977 -0.1216776112 0.3523826484 -0.9279121877 -0.2329733734 0.2568531559 -0.9379498193 -0.4786269985 0.7628195538 -0.4347672075 -0.1736922895 0.6566988842 0.7338784396 -0.7734295120 -0.6004174050 -0.2032381109 -0.7640829793 -0.6230827528 -0.1671678316 0.2986763807 0.2188546570 -0.9289214492 0.2974136816 0.2166317813 -0.9298471774 -0.2439406125 0.3579243394 -0.9013229970 0.3978216740 0.4542095597 -0.7971396311 0.3423556590 0.4963671522 -0.7977545067 -0.3679628558 0.7958086256 0.4809282359 -0.3649444888 0.8040878048 0.4693168678 -0.8854921669 0.3731742118 0.2768476658 -0.8869877408 0.3678072531 0.2792321117 0.0322078400 0.0956224987 -0.9948964734 0.0299079061 0.0983241180 -0.9947049236 0.0681975009 0.0531630385 -0.9962543813 0.0336744660 0.0939380042 -0.9950083827 0.0706280609 0.0502719382 -0.9962351174 0.0315040843 0.0964953197 -0.9948347330 0.0697364992 0.0513352372 -0.9962437022 -0.9735264047 0.2172900454 0.0709321891 -0.4238658505 -0.7489808656 -0.5092792984 0.4890343278 -0.6031934375 0.6300818226 0.0011449914 0.0684582752 -0.9976533233 0.1759339657 -0.2961205709 -0.9388076732 0.5084284723 -0.3526552713 -0.7855792437 0.1803346170 -0.9835924879 -0.0050243027 0.9711451219 -0.0971710847 -0.2177956209 -0.2651235069 -0.9614098029 0.0734895711 -0.2908679895 -0.5680926237 0.7698484160 0.6003621563 -0.1235816327 -0.7901220547 0.4877586425 0.4212424283 0.7646216863 -0.0679940070 -0.9155813182 -0.3963428627 -0.1218615325 0.3804117748 -0.9167533193 0.3198465936 -0.2090825026 0.9241118242 -0.6040763679 -0.0347660144 -0.7961677374 -0.2391588316 -0.6359419526 0.7337444284 -0.2315481140 -0.6370179217 0.7352507316 0.8045606283 -0.5925221591 0.0399960795 0.5654835704 -0.0073107878 0.8247271573 0.0996567533 0.7560992480 0.6468249057 -0.1534863056 0.6421901312 -0.7510218302 0.7465850728 0.1815153690 -0.6400491386 0.1414894489 -0.5278171070 -0.8374902014 -0.6001513253 -0.5560365206 -0.5750145862 -0.2655329858 0.5367697302 -0.8008560983 -0.8479747010 -0.3158361062 -0.4256600292 -0.7710773193 -0.1248559153 -0.6243803072 0.3590315263 0.2544338358 -0.8979753818 0.3518003944 0.2536803650 -0.9010453679 0.3589464728 0.2544589549 -0.8980022661 0.4646804167 -0.0593504289 0.8834872025 -0.0936971359 -0.1858371766 -0.9781029550 -0.0848773175 -0.1981174153 -0.9764964571 -0.1139044254 -0.6161846465 -0.7793216687 0.0886052415 0.1653566245 0.9822455385 0.7157411650 -0.2994414555 -0.6309115624 0.8781633742 0.0218736877 0.4778604712 0.4081841330 0.9091372680 -0.0827957819 0.9197972083 -0.1472227766 -0.3637286758 0.4277898186 0.5480282638 -0.7187912723 0.4394551041 0.5374431020 -0.7197458744 0.4456011931 0.4935921509 -0.7468643553 -0.0485454231 -0.6506540683 0.7578209718 -0.0481436887 -0.6506588102 0.7578425285 -0.0497861712 -0.6508242675 0.7575942912 -0.0495882518 -0.6508277885 0.7576042470 -0.0496804439 -0.6508526768 0.7575768256 0.3639462600 -0.0156375388 -0.9312886702 0.9432757686 0.2503101463 -0.2181184425 -0.4285941612 0.5268779790 0.7339663754 -0.4289851900 0.5264523374 0.7340433524 -0.4345485206 0.5250489368 0.7317726404 -0.7262325890 0.3025659013 0.6172844579 -0.0362819197 0.2405688693 -0.9699537316 0.0041098118 0.2892686546 -0.9572391315 0.0163328436 0.3096376237 -0.9507143526 0.2013687327 0.3973553829 -0.8952984604 0.1078107568 0.8494478929 -0.5165414968 -0.3693024701 -0.1432358843 -0.9182043166 -0.2700009856 0.0784248608 -0.9596608823 -0.3530754138 -0.2886864242 0.8899426390 -0.3215961619 -0.9253116456 -0.2009334895 0.2932603575 -0.5837363918 -0.7571328731 -0.0298843964 -0.6451778305 -0.7634477650 0.2668505028 0.3719920116 -0.8890516028 0.3191396197 0.1144429824 -0.9407723991 -0.3964390900 0.0135270960 -0.9179613639 -0.3971884964 0.0123192749 -0.9176543651 -0.3732327423 0.0502483820 -0.9263759605 -0.3734503034 0.0499569569 -0.9263040394 0.1842566099 -0.3894774244 0.9024172192 -0.2693927951 0.0358331489 -0.9623635007 -0.2120112530 0.0192422485 -0.9770777679 -0.0860918769 -0.1622246642 0.9829910208 0.6306502377 -0.6960140199 -0.3432852484 0.6343791607 -0.6933582518 -0.3417856275 -0.2452331225 0.8945703699 -0.3736369481 -0.4035387604 0.9128025361 0.0628331037 -0.5502987133 -0.7400344464 0.3866786060 0.1735308236 0.3615626939 -0.9160564784 0.1744383978 0.3463888424 -0.9217299036 0.3688283023 -0.7351868503 -0.5687406953 -0.4895745469 -0.5444953403 -0.6810591659 0.0874890179 0.4826725058 0.8714200617 0.0729883692 0.4577557752 0.8860769426 0.2545693868 0.7718920274 -0.5825608340 0.2177875673 0.8018553863 -0.5564139781 -0.1614376204 -0.9838692491 0.0770661750 -0.0928269700 0.9011149867 0.4235267812 -0.4452217595 -0.8639967785 -0.2351322001 0.7007708886 -0.1018125545 0.7060838232 0.7780985812 -0.0149332779 0.6279646449 -0.1273496553 -0.6337172137 0.7630101954 -0.1228372183 -0.6298738414 0.7669223962 -0.1273183918 -0.6337422480 0.7629946201 -0.1228069967 -0.6299732043 0.7668456190 -0.1228640086 -0.6300211003 0.7667971366 -0.0929628984 -0.6040526159 0.7915038451 -0.1219618768 -0.6310538027 0.7660916386 -0.0935050390 -0.6037190344 0.7916944709 -0.0933836070 -0.6036235575 0.7917816004 -0.0310401618 0.6017031843 0.7981163990 0.5127440477 0.8092121115 -0.2868262541 0.9208306298 0.2509966090 0.2984487452 -0.0789216333 0.2649687191 -0.9610218279 -0.0744879027 0.2682325313 -0.9604701253 -0.0701644054 0.2713419054 -0.9599221461 0.3275161129 0.4936362998 -0.8056403660 0.6858712507 0.7189669911 0.1125481818 -0.1523924793 -0.6449742610 0.7488556168 -0.1524406156 -0.6449522384 0.7488647868 -0.1524540784 -0.6449498951 0.7488640643 -0.1524059761 -0.6449554130 0.7488691032 -0.1524366112 -0.6449519068 0.7488658875 -0.1524565811 -0.6449495853 0.7488638216 -0.1524533301 -0.6449499597 0.7488641610 -0.1523868192 -0.6449576189 0.7488711018 -0.152401851