<?xml version="1.0"?>
<VTKFile type="UnstructuredGrid" version="0.1" byte_order="LittleEndian">
  <UnstructuredGrid>
    <FieldData>
      <DataArray type="Float32" Name="TIME"  NumberOfTuples="1" format="ascii"> 3.1500000000 </DataArray>
      <DataArray type="Int32"   Name="STEP"  NumberOfTuples="1" format="ascii"> 315000 </DataArray>
    </FieldData>
    <Piece NumberOfPoints="399" NumberOfCells="399">
      <Points>
        <DataArray type="Float32" NumberOfComponents="3" format="ascii">
 0.4248653998 0.2068248955 0.0759427777 0.5299832085 0.1286322398 0.0400907814 0.5050732576 0.1472904495 0.1825915739 0.6403306431 0.1082658839 0.1124597259 0.5396124106 0.3646963680 0.2040001879 0.5528625594 0.3591021379 0.2072260444 0.5678908648 0.4472840266 0.1939264708 0.7522014009 0.1787386981 0.1457377025 0.7585131806 0.1855912288 0.1501547425 0.6781370636 0.4551484610 0.1694655018 0.8496087575 0.2321587558 0.1150671451 0.7816290953 0.3733970779 0.0369724980 0.7953317301 0.3703140961 0.0373490402 0.8168259645 0.3857428808 0.0431748503 0.8042875334 0.3963503384 0.2240349611 0.8177013611 0.3880439960 0.2261934653 0.8970056282 0.3686625444 0.1723156501 0.7489574947 0.3245508946 0.6726866953 0.7715934974 0.2992913423 0.6582608283 0.7860262280 0.3639001697 0.5621496765 0.8677399678 0.6052388035 0.5111381557 0.9118153219 0.5556484120 0.5587191692 0.8933346679 0.6065782609 0.4947005521 0.9262235271 0.5446459711 0.5458333873 0.9417326806 0.3093619524 0.5254644682 0.9349240465 0.3343202455 0.5344014977 0.9466583445 0.4740623707 0.4508183970 0.2426831049 0.7997975720 0.0414071968 0.2550041608 0.8173386318 0.0914576052 0.0745408725 0.9091233424 0.1097898704 0.1543235479 0.7223190682 0.0815087308 0.0388480982 0.8885764416 0.1662299829 0.0554830879 0.8047835788 0.1553459405 0.0622452463 0.7985055048 0.1588802333 0.1716655625 0.7198407665 0.1453823665 0.1846701561 0.8263774465 0.1958310023 0.5696624587 0.7614152048 0.2455265677 0.6836954703 0.7584626827 0.2617669396 0.6518268781 0.7389197959 0.1620804398 0.7064494554 0.8129140174 0.2796419981 0.6573950744 0.7424563000 0.1621257100 0.6559148434 0.7439887355 0.1560625474 0.6050538076 0.8504643463 0.2446693012 0.6094907047 0.8548454509 0.2417827815 0.5207958569 0.7623147554 0.0984629230 0.7326500452 0.8581092385 0.2193676178 0.7273890290 0.8568454725 0.2066728652 0.5647757251 0.8549308118 0.1613304431 0.5655434373 0.8555395248 0.1539497744 0.1730882234 0.4807041417 0.3236690854 0.1676985725 0.4846854632 0.4415912643 0.1372092465 0.6603894339 0.2434466167 0.0843620550 0.6890420191 0.2636708744 0.1610016440 0.6613733484 0.2414222495 0.2576851085 0.4522144120 0.3447845182 0.2908214621 0.4616805599 0.4187197681 0.2909893633 0.5655087755 0.4523271738 0.3086335822 0.4589967587 0.2813300156 0.1182092376 0.7733036211 0.4080899133 0.2713211061 0.7854265390 0.2555503670 0.4240764260 0.5343440434 0.4164792079 0.4308570962 0.5455601846 0.4205639836 0.2460011533 0.8876086200 0.3715552440 0.3711242370 0.8402713132 0.4486925971 0.3884549630 0.8571705960 0.4473808475 0.4440476363 0.9114116038 0.2749304917 0.5616938294 0.7792370171 0.4616549388 0.7554627866 0.3393613919 0.5253668229 0.7491420431 0.3251155090 0.5221859768 0.7310406598 0.1923219949 0.5211145470 0.6605273534 0.0750023835 0.2089067528 0.6490923747 0.1078240672 0.2421732256 0.6082326213 0.1071843033 0.3161804105 0.5368083909 0.0942187476 0.3297712091 0.6497659713 0.8867029192 0.4452710663 0.6558269859 0.9007455621 0.3525092499 0.6572064477 0.9097061734 0.3464141334 0.7437350456 0.9446356999 0.5283420708 0.6975278708 0.9102991960 0.3310051167 0.7118965833 0.2412316027 0.2823330917 0.6923336936 0.1618248077 0.4376710954 0.7639623239 0.3793123765 0.3440283250 0.7707357950 0.3872246136 0.3523723843 0.5690853511 0.3189424533 0.3113877753 0.5335510476 0.2357768622 0.4478705485 0.4819227643 0.2672506189 0.3471227019 0.4709344605 0.3273643154 0.5039571094 0.4582434204 0.3355683000 0.5055486916 0.3861276966 0.4139788836 0.4441306692 0.5795571436 0.5972595957 0.5628768812 0.1272842656 0.2954914900 0.0794071977 0.1210214181 0.2920249252 0.0845407793 0.1781408184 0.3772353146 0.0528338390 0.1491844663 0.4388036589 0.0568120608 0.0950512948 0.4146546681 0.1045540233 0.2077575151 0.4386268474 0.0527652630 0.1964214186 0.4344279504 0.0567126550 0.2718648180 0.5419332183 0.0599521992 0.1116354518 0.4730190640 0.1348027263 0.1123442328 0.4827919031 0.1420330666 0.1047366160 0.4920107030 0.1450381015 0.0995444642 0.5073276961 0.1534450320 0.1196638963 0.6091636718 0.0768627259 0.1243078443 0.6141207631 0.0785434718 0.0731067776 0.6660881072 0.2039450098 0.0764849624 0.6738812422 0.1942214695 0.1368991799 0.3952860308 0.2410298202 0.2422129014 0.3041290395 0.2229840669 0.2365962374 0.2958151017 0.2228482942 0.2487065305 0.3044898681 0.2244116329 0.2293351575 0.2902092921 0.2219679293 0.2433828239 0.2948293593 0.2245371381 0.2197441018 0.2869283742 0.2202318925 0.2548629152 0.3066654798 0.2255143817 0.2368430257 0.2880812481 0.2239868406 0.2496209684 0.2953274189 0.2258874150 0.2609596678 0.3107895467 0.2263356849 0.2673063700 0.3172670116 0.2268942695 0.2743123262 0.3269064886 0.2271851418 0.0603278168 0.3238598414 0.2405522966 0.2818529653 0.3248939683 0.2291690806 0.2734194306 0.3270489578 0.3139738899 0.2819438447 0.3344278418 0.3145349040 0.0744056152 0.2508633320 0.2704875817 0.0724357514 0.1488447480 0.2300777349 0.1130154651 0.0685989885 0.2994136434 0.1289097085 0.0610866038 0.3107441955 0.2422526187 0.1318705395 0.3407276958 0.2508571704 0.1370578792 0.3419975969 0.2667431063 0.1556165961 0.3433604517 0.2741722746 0.1652459909 0.3438923033 0.2824434230 0.1696904626 0.3451599507 0.8679187193 0.1866463647 0.4388059649 0.8336815441 0.1057840475 0.4125781843 0.7587858116 0.1533896632 0.5977301413 0.7548312617 0.1422528721 0.5935170652 0.7470166214 0.1331134966 0.5912839108 0.2973162795 0.2801245546 0.5031615457 0.2898196310 0.2700267229 0.4140874809 0.2534999093 0.3450420796 0.3698620981 0.3102806294 0.3803417923 0.4286194435 0.6312906127 0.7388019353 0.5144406420 0.6934319225 0.6467628590 0.3835487433 0.7179983776 0.8411222665 0.5228731770 0.7601122184 0.7119191053 0.4431567980 0.7150663908 0.7763954157 0.3773384806 0.7224902760 0.7765642227 0.3764749065 0.7217473635 0.7830361497 0.3798931871 0.5481876871 0.5178808289 0.2034163990 0.6016766994 0.5231814165 0.2544418239 0.6024646015 0.5427584849 0.2596853890 0.6200429694 0.5473502112 0.0836202909 0.6262672118 0.5623852641 0.0836986483 0.6399061665 0.5592323600 0.0832586321 0.7413563535 0.6640244472 0.2510467141 0.8187172170 0.4748234308 0.2427179789 0.8265614457 0.4850378735 0.2453604780 0.7524090591 0.6663455609 0.2524255849 0.8342691136 0.4949637606 0.2478044054 0.7588449469 0.7526337219 0.1137493569 0.7644303291 0.6690100736 0.2538317129 0.7782255987 0.6723028796 0.2552951346 0.8026211971 0.7665639266 0.1615333266 0.8794303893 0.6238427935 0.0942656155 0.9217427210 0.5592531278 0.1912934031 0.8981097368 0.6354670512 0.0942521458 0.9265938483 0.6781191502 0.2684880207 0.9125147751 0.7262486924 0.2334558952 0.9396903614 0.6711480962 0.2630029574 0.3658527363 0.5765590659 0.0833478448 0.4803345184 0.7324427411 0.0279594969 0.4430327906 0.6659643066 0.0961067777 0.4495915657 0.6639644372 0.0952663863 0.4523356011 0.6598796972 0.0965929205 0.3894141604 0.1711516736 0.4216738199 0.3343286525 0.0835966434 0.4717568675 0.1711620426 0.1840714150 0.3885517512 0.2163971784 0.1306980813 0.4587598012 0.1403154701 0.0872442835 0.4244191506 0.9285706806 0.4500576923 0.5810533584 0.2542666679 0.1549620475 0.0768239071 0.2905357206 0.1241708817 0.1289598790 0.3212524218 0.0796904101 0.1134312690 0.3626135844 0.1664950206 0.0989910466 0.3618115993 0.1720329679 0.1001074902 0.3650572868 0.1699176445 0.1024752424 0.3680818952 0.1736262989 0.1065976259 0.3291195061 0.2036806440 0.1572364156 0.3370094480 0.2091279650 0.1616368557 0.0617460568 0.1503438602 0.5058006193 0.1851539716 0.1663347421 0.5386195876 0.1499010631 0.2658918067 0.5712995343 0.1483447267 0.2522251598 0.4787911655 0.0408593475 0.9382739276 0.1632791604 0.1579120072 0.9508842829 0.1726206157 0.1685811113 0.9468866370 0.1683305459 0.4623075964 0.4848400189 0.1661079831 0.4577480716 0.4752220093 0.1662386698 0.5258212038 0.3954495961 0.2669789212 0.8807306201 0.5610000300 0.0484150156 0.8724848982 0.5657484652 0.0455643705 0.8788722667 0.5639566132 0.0436091010 0.9528858160 0.5564838690 0.0824617987 0.0848607388 0.9509141280 0.2972595243 0.0909299363 0.9527339575 0.2984105704 0.7712012157 0.0774324200 0.2849992451 0.7320443631 0.0975390869 0.3049634839 0.7245534756 0.0995460931 0.3031239304 0.8351611422 0.1252680389 0.3223783897 0.8416792935 0.1387117612 0.3278997499 0.7707173439 0.1908852196 0.2038462823 0.7747345056 0.1947182422 0.2066767783 0.3426249664 0.1902185314 0.5344568181 0.3550202730 0.1906352940 0.5362002322 0.4139984984 0.2829447220 0.5664114098 0.9548999766 0.6061799796 0.3610196727 0.8663816740 0.6117988342 0.4001117482 0.8999165720 0.4790679483 0.3659214221 0.9022696173 0.4738063250 0.3628354953 0.8960219097 0.4718840362 0.3635561023 0.9027215784 0.3807540388 0.2926226185 0.8058069013 0.0773897064 0.5900194540 0.3432504608 0.9113996774 0.0686957367 0.3482558006 0.9041868901 0.0728547233 0.2973772036 0.8399038630 0.0897857663 0.2988436660 0.8343468914 0.0890976949 0.8006523206 0.6605800453 0.3595342041 0.6844023208 0.6155006151 0.3399598720 0.6751674014 0.6201202211 0.3384222765 0.1505746956 0.9040888485 0.4534406548 0.1568601127 0.9069177990 0.4543828954 0.1183438029 0.9135209302 0.2299884906 0.1206150287 0.9131855601 0.2376250882 0.2538580717 0.3186000673 0.1147662617 0.2556208500 0.3240384220 0.1154064592 0.2607368953 0.3190386013 0.1151258936 0.2621695079 0.3245767952 0.1156871479 0.2673290782 0.3190360097 0.1154431402 0.2631784636 0.3301129670 0.1161659505 0.2685370207 0.3247186011 0.1158617135 0.3468128793 0.2670677801 0.0577853394 0.2798052494 0.4118680773 0.0597693170 0.1971453155 0.4195476852 0.3309923357 0.3175368897 0.4047895726
[...]
      <PointData Scalars="overlap">
        <DataArray type="Float32" Name="overlap" format="ascii">
 0.0002256379 0.0000177033 0.0002060526 0.0000274104 0.0000868350 0.0000337099 0.0000068971 0.0000518759 0.0002480883 0.0002510607 0.0001092071 0.0000488522 0.0000731469 0.0004926381 0.0000276209 0.0002317958 0.0000930572 0.0000060000 0.0000061678 0.0001280369 0.0000224984 0.0000495228 0.0000312289 0.0000298565 0.0000237760 0.0000096007 0.0001205104 0.0000835068 0.0001927200 0.0001198530 0.0000302482 0.0000289569 0.0000076510 0.0000869553 0.0002832738 0.0000287751 0.0002004944 0.0000835212 0.0000471538 0.0000981351 0.0001040822 0.0001685508 0.0000239964 0.0000126832 0.0001839053 0.0000526379 0.0000015159 0.0000530717 0.0001663770 0.0000604915 0.0000793322 0.0002216084 0.0000634276 0.0000343289 0.0000158327 0.0000082750 0.0000550745 0.0002893326 0.0001524646 0.0000512758 0.0001177548 0.0000174095 0.0000945710 0.0000952060 0.0000257206 0.0003204121 0.0000196731 0.0000905715 0.0000904120 0.0000190775 0.0000293785 0.0000611666 0.0000073466 0.0000862317 0.0000186287 0.0000016349 0.0000080479 0.0000087927 0.0000386082 0.0001862860 0.0000088885 0.0000307338 0.0002621092 0.0001151891 0.0000368293 0.0001255134 0.0000099979 0.0000138053 0.0000039561 0.0000160922 0.0000166228 0.0000397084 0.0000071191 0.0000396034 0.0000270765 0.0001012117 0.0001229893 0.0000462329 0.0000056319 0.0000081118 0.0000276737 0.0000246775 0.0000824556 0.0000447743 0.0000528178 0.0000485625 0.0000603114 0.0000762485 0.0000621742 0.0000975018 0.0000384229 0.0000569451 0.0000136611 0.0001104712 0.0000157818 0.0000255061 0.0001252579 0.0001385682 0.0001236176 0.0000801675 0.0001385730 0.0000159782 0.0000305261 0.0000370289 0.0000327672 0.0000591296 0.0000284110 0.0000085792 0.0000406112 0.0001085802 0.0000463189 0.0000185848 0.0000024310 0.0000398289 0.0000015833 0.0000123317 0.0000049116 0.0000336294 0.0000387719 0.0000606368 0.0000184802 0.0000170358 0.0000080952 0.0000066450 0.0000121669 0.0000222277 0.0000204455 0.0000127496 0.0000106554 0.0000259773 0.0000088388 0.0001702415 0.0000143024 0.0000456910 0.0000110554 0.0000461975 0.0001710820 0.0000240742 0.0001047578 0.0002023466 0.0000361836 0.0000389350 0.0001533943 0.0000033232 0.0000396219 0.0002883029 0.0000076432 0.0000183273 0.0000145051 0.0000433758 0.0000043411 0.0000132724 0.0000081510 0.0000749010 0.0000376064 0.0000597937 0.0000613157 0.0000357794 0.0000606832 0.0000171125 0.0000350244 0.0000001525 0.0000569088 0.0000125972 0.0000174007 0.0000517802 0.0000188834 0.0000526980 0.0000300207 0.0000299279 0.0000203968 0.0000080041 0.0000287975 0.0000112806 0.0000229205 0.0000147449 0.0000045430 0.0000260873 0.0000157585 0.0000055832 0.0000674187 0.0000367704 0.0000022014 0.0000127440 0.0000078509 0.0000401182 0.0000105319 0.0000492291 0.0000640639 0.0000374779 0.0002483470 0.0000718165 0.0000078872 0.0000103482 0.0000072660 0.0000072046 0.0000115902 0.0000366707 0.0000337565 0.0000537128 0.0000649548 0.0000026271 0.0000080668 0.0000882936 0.0000310382 0.0000607442 0.0000853007 0.0000024963 0.0000074638 0.0000555600 0.0000900046 0.0000004617 0.0000286876 0.0000798629 0.0001171771 0.0003508338 0.0003215818 0.0000397243 0.0000256005 0.0001376889 0.0001623357 0.0000230171 0.0000390140 0.0000070362 0.0000153270 0.0000604332 0.0000177147 0.0000216979 0.0000120344 0.0000310491 0.0000744386 0.0000534540 0.0000057811 0.0000327573 0.0000231837 0.0000209699 0.0000334813 0.0000189513 0.0000233869 0.0000274330 0.0000620427 0.0000032117 0.0000056998 0.0000214921 0.0000013260 0.0000081171 0.0000690608 0.0002011945 0.0001006063 0.0000706365 0.0000618012 0.0000253990 0.0000536184 0.0000845895 0.0000196427 0.0000505183 0.0000230461 0.0001329042 0.0000053961 0.0000218148 0.0000399133 0.0000061854 0.0000000643 0.0000137749 0.0000075539 0.0000123540 0.0000692227 0.0000456264 0.0000088911 0.0000061718 0.0000204573 0.0000508631 0.0000420275 0.0000040655 0.0000223659 0.0000264898 0.0000097119 0.0000019758 0.0000134513 0.0000581367 0.0001164114 0.0000070129 0.0000207854 0.0000301257 0.0000081365 0.0000236142 0.0000219525 0.0000728942 0.0000743349 0.0000795307 0.0000089290 0.0000790251 0.0000033305 0.0000337615 0.0000162430 0.0000038518 0.0000088100 0.0000220561 0.0000322563 0.0000314729 0.0000289628 0.0000208638 0.0000060098 0.0000217992 0.0000137367 0.0000218277 0.0000041045 0.0000587750 0.0000081197 0.0000050879 0.0000113289 0.0000606796 0.0000876595 0.0000141377 0.0000073616 0.0000051437 0.0000503370 0.0000601859 0.0000342988 0.0000376807 0.0000593312 0.0000512649 0.0000146802 0.0000058063 0.0000106903 0.0000039438 0.0000069978 0.0000084452 0.0000097963 0.0000055156 0.0000459216 0.0000166961 0.0000077081 0.0000327615 0.0000234280 0.0000008562 0.0000054888 0.0000595345 0.0000461833 0.0000196290 0.0000226672 0.0000419179 0.0000146748 0.0000080435 0.0000069243 0.0000338290 0.0000269577 0.0000104500 0.0000220936 0.0000404656 0.0000195251 0.0000140004 0.0000138908 0.0000066905 0.0000151481 0.0000079013 0.0000101484 0.0000158642 0.0000149494 0.0000045952 0.0000050821 0.0000517010 0.0000115943 0.0000608284 0.0000297421 0.0000320194 0.0000083809 0.0000189541 0.0000047552 0.0000028119 0.0000037564 0.0000652014 0.0000062756 0.0000314305 0.0000106510 0.0000235028 0.0000129713 0.0000246065 0.0001358930
        </DataArray>
        <DataArray type="Float32" Name="contact normal" NumberOfComponents="3" format="ascii">
 0.9747521921 -0.1893311521 -0.1183717818 0.1555831471 0.9312614394 0.3294632238 -0.0006365638 0.6164516514 -0.7873925046 -0.2103103970 0.7157890338 -0.6658945833 0.1103503205 -0.0480200896 -0.9927320272 0.2338274529 -0.1107031468 -0.9659552451 0.5992145212 -0.7719993119 -0.2120354217 -0.3785369631 0.6351394746 -0.6732812305 -0.3288796853 0.6782705110 -0.6571052172 -0.1641738609 -0.9501176243 -0.2651856772 -0.8558114020 0.4668460619 0.2228039466 -0.1400021980 -0.4491001831 0.8824445649 -0.1479981346 -0.4748754997 0.8675193439 -0.1169569262 -0.3830477452 0.9162944408 -0.0083269428 0.0626908791 -0.9979982544 0.0267986314 -0.0943847640 -0.9951750347 -0.8319777492 -0.0603887084 0.5515126732 -0.4683970851 0.3948413422 -0.7903824929 -0.3784786839 -0.4904396274 -0.7849986355 0.4266987597 -0.1496522528 0.8919262143 0.4063731763 -0.1798405561 0.8958338105 -0.6620569725 -0.1481318766 -0.7346683009 0.5876499477 -0.7239456717 0.3613449922 -0.6340703426 -0.2069738449 -0.7450614928 -0.0676243946 -0.3232538728 -0.9438929362 -0.7624901515 0.1937328414 -0.6173138222 0.3124990103 -0.0294109395 0.9494626718 -0.7342299391 -0.5295647064 0.4248148046 -0.7988447499 -0.6011051070 0.0227972763 -0.0013739986 -0.9554447290 0.2951668714 0.3770182246 0.7929035159 0.4787079201 0.3335821521 -0.6196437712 -0.7104678350 0.7209771580 0.5217184403 -0.4560721508 0.7537154133 0.4852963958 -0.4431709422 0.2852217921 0.6836321157 -0.6717854268 -0.4732867860 -0.4351824517 -0.7659085140 0.2186383135 -0.1884082634 -0.9574443139 -0.6235794725 0.7261398072 -0.2896025238 -0.5201705630 0.6631012809 0.5382557725 -0.1222909922 -0.0632404687 -0.9904774386 -0.3277450536 0.7301522305 0.5995505818 -0.7229376171 0.6861790791 0.0807432548 0.4062212406 -0.7683156347 -0.4946467316 0.4402992775 -0.7260718660 -0.5281630351 0.1714008588 0.2531788149 0.9521146114 -0.4363236894 -0.6609578440 0.6105377682 -0.9456347110 -0.3248601247 -0.0155207183 0.6139349558 -0.7892958676 0.0097930318 0.5989274201 -0.8008031359 0.0005319984 0.5472270084 0.8316332974 0.0944915869 0.4998142983 0.7781883132 -0.3802743962 0.0644276384 -0.3623447493 0.9298146923 0.7572550712 -0.0105173541 0.6530345645 0.1054386930 0.2946200382 0.9497798246 -0.1808927079 0.8143160022 -0.5515136233 -0.1033728997 0.6607686586 -0.7434371685 -0.0956852645 0.2005348328 -0.9750026210 -0.2508171129 0.5934769044 0.7647718221 0.4793166051 -0.4878993161 -0.7295271410 0.2611738511 -0.8734931192 0.4108503258 -0.4050110843 0.2950854440 -0.8653846557 -0.5610540180 0.6174376739 -0.5513520724 0.6796996230 -0.6364648419 -0.3645832244 0.1152565993 -0.2602463047 -0.9586385018 0.2785631336 -0.2555577217 -0.9257930825 -0.1151243211 -0.6947451309 0.7099828123 -0.1319873211 -0.1363907008 -0.9818232651 0.1889874876 -0.3259844871 0.9262925260 0.1771333611 -0.3355288259 0.9252265557 -0.3539264633 0.6917228846 -0.6294882918 -0.5815522191 -0.3308839963 0.7431775006 -0.6850154147 -0.6446700052 0.3393441703 -0.3519550561 0.0410007908 -0.9351184811 0.2481535403 0.1400551524 -0.9585428393 0.6234523434 0.3240019735 -0.7115686170 0.9444680891 -0.0566718733 0.3236793589 0.9482877607 0.0855590863 0.3056631571 -0.4734754992 0.6020715940 -0.6429080396 -0.5584288068 0.4656560446 0.6865287436 -0.4312490752 0.6832505197 0.5892308228 0.1343175774 0.8425328425 -0.5216293681 -0.6365649904 -0.7535031876 0.1643714064 0.0926928064 -0.3335328219 0.9381705071 0.0489929290 -0.2190276713 0.9744878512 0.3163015516 0.5395928410 -0.7802518147 0.7737819837 0.4542838612 0.4414607741 0.3336751431 0.5760508665 -0.7462079456 0.2731973073 0.6214714330 -0.7342591432 0.8864817440 0.4479876872 -0.1160049549 -0.3028288095 -0.8435987241 -0.4434364721 -0.2974547452 0.9482585534 0.1110242789 -0.3437159469 0.8246737827 0.4491909393 -0.8803490098 -0.1147583429 -0.4602348788 -0.2751888388 -0.8528887090 -0.4436800119 -0.0722181517 -0.8079370612 -0.5848266784 -0.2014317071 0.9574071772 0.2068737887 -0.5934971125 0.7299742169 0.3389672848 -0.3922071979 -0.5327762439 0.7498819826 0.3396788747 0.5385613423 -0.7710836158 0.3863052502 0.5406343461 -0.7473170395 0.3396641054 0.5385604607 -0.7710907376 0.3396601304 0.5385602234 -0.7710926544 0.1126304851 -0.4601094420 0.8806893182 0.1108375273 -0.4528129551 0.8846894767 -0.0837947892 -0.9413521326 -0.3268556190 0.7067014100 -0.6148202306 -0.3500988447 0.4599462958 -0.3548481749 -0.8139607962 -0.2235154764 0.1352104931 0.9652766207 -0.2231884779 0.1348049347 0.9654089977 -0.2230489403 0.1346322711 0.9654653395 -0.2232354817 0.1348632234 0.9653899889 -0.2225841784 0.1340555629 0.9656528308 -0.2236761572 0.1354097854 0.9652114622 -0.2227771887 0.1342952121 0.9655750205 -0.2224742057 0.1339192015 0.9656970929 -0.1802171018 0.0818583724 0.9802147740 -0.2226827390 0.1341891114 0.9656115576 -0.2226674931 0.1344222636 0.9655826441 -0.2230807929 0.1350016445 0.9654063993 0.1669336835 -0.3145194197 -0.9344574254 -0.2215266327 0.1354814304 0.9656970193 0.2534596699 -0.2169918226 -0.9426944068 0.2505248853 -0.2101706263 -0.9450214758 0.4823414615 -0.3851743964 -0.7867575223 0.7374692949 0.4353378750 0.5163525672 0.4636572437 0.3371353925 -0.8193666380 0.8230706763 -0.5669990894 -0.0326602878 0.2197689022 -0.1326075829 -0.9664972108 0.2253238018 -0.1300582828 -0.9655640980 0.2248704525 -0.1264248493 -0.9661521811 0.2037487164 -0.0979235695 -0.9741136664 0.2245751823 -0.1254520872 -0.9663476400 0.1756677363 -0.7374352073 0.6521734137 0.1959006684 0.1959943659 0.9608377265 -0.0155853933 0.4234284143 -0.9057954921 -0.0707417002 0.3607670906 -0.9299692028 -0.1004632079 0.3256044298 -0.9401536572 -0.0743411103 0.1549505130 -0.9851211793 -0.3376574891 0.8585549895 0.3858377249 0.1560651928 -0.5231813964 0.8378095739 -0.3066417596 -0.9367071702 -0.1689689574 0.9259435695 0.1042913957 -0.3629763228 0.5340504544 0.5979808413 0.5976696626 -0.6750060952 -0.6277726282 -0.3876445520 -0.9195154264 0.3290676849 -0.2149554360 0.0689786205 -0.6885749344 0.7218770737 0.0714423906 -0.6715834423 0.7374765521 0.0633444951 -0.3691964093 0.9271901026 0.4348572822 0.8794890614 -0.1933859740 -0.3196942015 -0.5168066597 -0.7941703180 0.2726991684 0.5234723042 -0.8072248202 -0.0187412308 0.0079258564 0.9997929521 -0.0187511396 0.0079561260 0.9997925259 0.0753980763 -0.0381818444 0.9964222382 0.2195139685 -0.5921880444 -0.7753237631 -0.1204665063 0.3287092864 -0.9367166198 -0.1204796895 0.3287201517 -0.9367111114 0.2194854179 -0.5920000850 -0.7754753708 -0.1204913574 0.3287297678 -0.9367062360 0.1357467632 -0.0261286727 0.9903989644 0.2192750480 -0.5917339947 -0.7757379280 0.2181246900 -0.5917950375 -0.7760156269 -0.3181071378 -0.8153461963 0.4837545133 -0.2059623474 0.1751988426 0.9627486053 -0.8647685048 0.4791998213 -0.1501431459 -0.0545728168 0.3320496764 0.9416819102 -0.6879597493 0.4288606860 -0.5854826174 -0.0387980995 -0.7615455339 -0.6469490762 0.1346521612 -0.2781351605 -0.9510571108 0.6640588138 0.3246364211 -0.6735258613 -0.2386484396 -0.2963474195 0.9247838284 -0.1922887483 -0.3520491027 -0.9160166301 -0.1771499796 -0.3510750843 -0.9194368765 -0.1801535303 -0.3565829784 -0.9167296684 -0.8774175579 0.4309606327 0.2107400344 -0.5001037341 0.4190605437 -0.7578156213 0.5889307050 -0.5446888094 -0.5970550440 0.2173171135 -0.1597787417 -0.9629351099 0.9732629121 0.2296900797 0.0013308610 -0.6192997309 0.5275765677 -0.5814901620 0.9097897144 -0.4077874791 0.0774083168 0.6530762189 0.0527482780 -0.7554528917 0.1091746389 0.9771540957 0.1823479408 -0.6847319471 -0.2364356897 0.6893767659 -0.6894320027 -0.2314050882 0.6863928895 -0.6822155677 -0.2397612734 0.6907216885 -0.6643672544 -0.2351486104 0.7094513953 0.4877542055 -0.4803185257 -0.7289649847 0.7528409783 -0.6492563569 -0.1081510263 0.0332283691 0.4262002903 0.9040183560 -0.6547165951 0.4062040386 0.6374515347 -0.0724816931 -0.4846446383 -0.8717029188 -0.5033486000 -0.6987192172 0.5083617240 0.3390255701 0.2884406722 -0.8954683922 -0.2373908232 0.0128356799 -0.9713294201 -0.2615780055 -0.0587862604 -0.9633904311 0.7522963085 0.2694437834 0.6012073784 0.1439865301 -0.6094816032 0.7796153247 -0.4401053747 0.8365807436 0.3262513120 0.2696946580 0.7976587569 0.5394490699 0.2716261664 0.8386219656 0.4721572032 0.2090941525 0.6355690369 -0.7431901740 -0.3845968404 0.7536588690 -0.5329949151 -0.2919921090 0.6684292930 0.6840635121 -0.2519063412 0.6666685965 0.7014956719 -0.1773009035 0.9573716660 0.2280435986 0.3002271965 0.5922483823 -0.7477335650 0.2806557765 0.5827405268 -0.7626570747 -0.2984592818 0.4463288350 -0.8436306231 -0.3000611102 0.4872076583 -0.8201170818 -0.1923611811 -0.5414409386 0.8184368552 -0.1957646401 -0.5312692121 0.8242749723 -0.4402933803 0.6284630727 -0.6412299943 0.0843772098 0.9896486534 0.1160863014 -0.6559118384 -0.6631196185 0.3606272753 -0.6477619226 -0.7391214330 -0.1846726804 0.6216148168 -0.6940364285 -0.3631920367 -0.4377350373 0.6553827949 -0.6155172047 -0.1216880988 0.3523766722 -0.9279130819 -0.2329826762 0.2568457614 -0.9379495335 -0.4786324703 0.7628187077 -0.4347626680 -0.1736953985 0.6566946020 0.7338815356 -0.7734339675 -0.6004127579 -0.2032348842 -0.7640876500 -0.6230779107 -0.1671645306 0.2986766899 0.2188533856 -0.9289216493 0.2974140012 0.2166305039 -0.9298473728 -0.2439424812 0.3579164931 -0.9013256070 0.3978246112 0.4542077022 -0.7971392237 0.3423585257 0.4963652935 -0.7977544330 -0.3679646751 0.7958146195 0.4809169255 -0.3649462895 0.8040936725 0.4693054140 -0.8854914846 0.3731744601 0.2768495133 -0.8869870261 0.3678076211 0.2792338971 0.0322140172 0.0956184751 -0.9948966601 0.0299140835 0.0983201205 -0.9947051329 0.0682034224 0.0531588990 -0.9962541968 0.0336806102 0.0939340027 -0.9950085525 0.0706339577 0.0502677993 -0.9962349082 0.0315102259 0.0964913461 -0.9948349239 0.0697423917 0.0513311140 -0.9962435021 -0.9735244494 0.2172982547 0.0709338767 -0.4238601600 -0.7489788241 -0.5092870368 0.4890312888 -0.6031956964 0.6300820188 0.0011462380 0.0684626783 -0.9976530198 0.1759364514 -0.2961232367 -0.9388063665 0.5084273704 -0.3526507011 -0.7855820085 0.1803338965 -0.9835926232 -0.0050236894 0.9711439842 -0.0971662478 -0.2178028518 -0.2651254442 -0.9614082748 0.0735025710 -0.2908739724 -0.5680894244 0.7698485163 0.6003637366 -0.1235850433 -0.7901203205 0.4877600232 0.4212407056 0.7646217547 -0.0679809139 -0.9155837613 -0.3963394648 -0.1218210526 0.3804285430 -0.9167517411 0.3198462408 -0.2090841750 0.9241115680 -0.6040730373 -0.0347750691 -0.7961698689 -0.2391577918 -0.6359424012 0.7337443785 -0.2315471651 -0.6370183540 0.7352506559 0.8045584200 -0.5925253686 0.0399929547 0.5654949457 -0.0072993735 0.8247194587 0.0996570015 0.7561032479 0.6468201918 -0.1534912680 0.6421922202 -0.7510190297 0.7465797842 0.1815166761 -0.6400549368 0.1414910300 -0.5278204700 -0.8374878148 -0.6001474096 -0.5560419294 -0.5750134429 -0.2655346647 0.5367666573 -0.8008576012 -0.8479770154 -0.3158369213 -0.4256548137 -0.7710758573 -0.1248576580 -0.6243817643 0.3590316384 0.2544328496 -0.8979756164 0.3518005401 0.2536793493 -0.9010455969 0.3589466184 0.2544579718 -0.8980024865 0.4646805061 -0.0593561916 0.8834867683 -0.0936894342 -0.1858422991 -0.9781027195 -0.0848694554 -0.1981222104 -0.9764961676 -0.1138851287 -0.6161843127 -0.7793247527 0.0886093338 0.1653464170 0.9822468877 0.7157349698 -0.2994207650 -0.6309284099 0.8781730043 0.0218697724 0.4778429528 0.4082083293 0.9091251630 -0.0828094068 0.9197856137 -0.1472308034 -0.3637547462 0.4277875414 0.5480314747 -0.7187901796 0.4394529469 0.5374463545 -0.7197447628 0.4455991856 0.4935955426 -0.7468633116 -0.0485446738 -0.6506544193 0.7578207184 -0.0481429377 -0.6506591611 0.7578422749 -0.0497854230 -0.6508246189 0.7575940384 -0.0495875020 -0.6508281399 0.7576039942 -0.0496796927 -0.6508530282 0.7575765729 0.3639443843 -0.0156513700 -0.9312891708 0.9432762612 0.2503096253 -0.2181169100 -0.4285987975 0.5268597272 0.7339767698 -0.4289898258 0.5264340835 0.7340537345 -0.4345531116 0.5250307638 0.7317829529 -0.7262404813 0.3025476139 0.6172841360 -0.0362867805 0.2405660603 -0.9699542464 0.0041051717 0.2892660895 -0.9572399266 0.0163275924 0.3096343001 -0.9507155252 0.2013634289 0.3973582509 -0.8952983804 0.1078014353 0.8494504867 -0.5165391768 -0.3693045123 -0.1432355313 -0.9182035503 -0.2700033345 0.0784259234 -0.9596601346 -0.3530753957 -0.2886739887 0.8899466800 -0.3215963406 -0.9253126496 -0.2009285801 0.2932611793 -0.5837404847 -0.7571293993 -0.0298828038 -0.6451817676 -0.7634445002 0.2668550574 0.3719826305 -0.8890541609 0.3191369739 0.1144329175 -0.9407745210 -0.3964528757 0.0135156617 -0.9179555786 -0.3972022968 0.0123077679 -0.9176485462 -0.3732472364 0.0502372864 -0.9263707225 -0.3734648147 0.0499458225 -0.9262987893 0.1842782313 -0.3894598734 0.9024203790 -0.2694193862 0.0358335889 -0.9623560403 -0.2120377434 0.0192420391 -0.9770720236 -0.0860840024 -0.1622131407 0.9829936121 0.6306858946 -0.6959624579 -0.3433242775 0.6344140305 -0.6933069802 -0.3418249100 -0.2452324419 0.8945731385 -0.3736307659 -0.4035522719 0.9127967005 0.0628311018 -0.5502967190 -0.7400374565 0.3866756834 0.1735293239 0.3615594434 -0.9160580455 0.1744368855 0.3463856140 -0.9217314031 0.3688218807 -0.7351858128 -0.5687462008 -0.4895798442 -0.5444942413 -0.6810562365 0.0874891819 0.4826697135 0.8714215918 0.0729885965 0.4577526438 0.8860785416 0.2545528942 0.7719002996 -0.5825570801 0.2177710760 0.8018627657 -0.5564097981 -0.1614480612 -0.9838666433 0.0770775694 -0.0928253611 0.9011145465 0.4235280703 -0.4452157802 -0.8639973902 -0.2351412741 0.7007713527 -0.1018172885 0.7060826800 0.7780968580 -0.0149407348 0.6279666027 -0.1273281937 -0.6337150850 0.7630155451 -0.1228157905 -0.6298716440 0.7669276327 -0.1272968705 -0.6337400680 0.7630000216 -0.1227855087 -0.6299709550 0.7668509077 -0.1228424622 -0.6300188032 0.7668024759 -0.0929414285 -0.6040497195 0.7915085769 -0.1219402452 -0.6310514451 0.7660970240 -0.0934835241 -0.6037161051 0.7916992454 -0.0933620463 -0.6036205873 0.7917864074 -0.0310448106 0.6016949329 0.7981224389 0.5127337440 0.8092208071 -0.2868201407 0.9208300228 0.2509979740 0.2984494700 -0.0789035329 0.2649436205 -0.9610302339 -0.0744697543 0.2682074024 -0.9604785500 -0.0701462258 0.2713167367 -0.9599305888 0.3274915051 0.4936215359 -0.8056594153 0.6858522943 0.7189844779 0.1125519920 -0.1523916531 -0.6449756079 0.7488546250 -0.1524397894 -0.6449535853 0.7488637950 -0.1524532521 -0.6449512420 0.7488630725 -0.1524051494 -0.6449567599 0.7488681114 -0.1524357849 -0.6449532536 0.7488648958 -0.1524557544 -0.6449509322 0.7488628299 -0.1524525035 -0.6449513066 0.7488631693 -0.1523859928 -0.6449589657 0.7488701100 -0.1524010248 -0.6449572348 0.7488685418 0.0626569532 0.755243740