<?xml version="1.0"?>
<VTKFile type="UnstructuredGrid" version="0.1" byte_order="LittleEndian">
  <UnstructuredGrid>
    <FieldData>
      <DataArray type="Float32" Name="TIME"  NumberOfTuples="1" format="ascii"> 6.1499999999 </DataArray>
      <DataArray type="Int32"   Name="STEP"  NumberOfTuples="1" format="ascii"> 615000 </DataArray>
    </FieldData>
    <Piece NumberOfPoints="399" NumberOfCells="399">
      <Points>
        <DataArray type="Float32" NumberOfComponents="3" format="ascii">
 0.4248653021 0.2068255324 0.0759430991 0.5299832503 0.1286328938 0.0400907990 0.5050734180 0.1472907593 0.1825917946 0.6403307905 0.1082664082 0.1124597210 0.5396124797 0.3646967429 0.2040009160 0.5528625781 0.3591025381 0.2072268881 0.5678908691 0.4472844795 0.1939272123 0.7522015639 0.1787392092 0.1457377623 0.7585133421 0.1855917203 0.1501548172 0.6781371157 0.4551491418 0.1694662103 0.8496088795 0.2321594243 0.1150671533 0.7816290731 0.3733980099 0.0369727137 0.7953317109 0.3703150378 0.0373492415 0.8168259419 0.3857438157 0.0431750205 0.8042876259 0.3963507467 0.2240357817 0.8177014453 0.3880444647 0.2261942445 0.8970056836 0.3686631317 0.1723159426 0.7489580851 0.3245513510 0.6726910395 0.7715941079 0.2992916147 0.6582655482 0.7860265753 0.3638990445 0.5621535392 0.8677399588 0.6052370377 0.5111382450 0.9118156838 0.5556473888 0.5587200763 0.8933347084 0.6065761667 0.4947006189 0.9262233831 0.5446446401 0.5458338620 0.9417329084 0.3093604644 0.5254686318 0.9349242099 0.3343188646 0.5344051819 0.9466582662 0.4740597988 0.4508201610 0.2426832103 0.7997987265 0.0414070100 0.2550043782 0.8173396388 0.0914574613 0.0745409731 0.9091238005 0.1097906443 0.1543237863 0.7223197860 0.0815085330 0.0388483860 0.8885768987 0.1662308031 0.0554835324 0.8047840751 0.1553463734 0.0622456717 0.7985059715 0.1588806503 0.1716660289 0.7198413479 0.1453822848 0.1846706085 0.8263779464 0.1958310281 0.5696633884 0.7614166848 0.2455277555 0.6836966125 0.7584636988 0.2617672744 0.6518277758 0.7389199963 0.1620810501 0.7064507680 0.8129151554 0.2796415255 0.6573959894 0.7424565245 0.1621263170 0.6559156931 0.7439888976 0.1560630564 0.6050553430 0.8504653730 0.2446686243 0.6094922185 0.8548465089 0.2417820998 0.5207967431 0.7623145659 0.0984627430 0.7326515907 0.8581097772 0.2193667388 0.7273905412 0.8568457973 0.2066721183 0.5647771228 0.8549312795 0.1613298491 0.5655447731 0.8555399908 0.1539491718 0.1730876820 0.4807040944 0.3236713688 0.1676973548 0.4846861905 0.4415935878 0.1372092301 0.6603890961 0.2434474728 0.0843619400 0.6890417481 0.2636713628 0.1610016331 0.6613729304 0.2414232279 0.2576845846 0.4522146833 0.3447875275 0.2908204739 0.4616814353 0.4187227878 0.2909881463 0.5655097788 0.4523296096 0.3086334952 0.4589965156 0.2813330464 0.1182083662 0.7733041065 0.4080898075 0.2713209148 0.7854264963 0.2555512390 0.4240756263 0.5343447263 0.4164830696 0.4308563836 0.5455606989 0.4205677080 0.2460004680 0.8876089285 0.3715553277 0.3711229330 0.8402723348 0.4486938847 0.3884537726 0.8571715020 0.4473817146 0.4440473641 0.9114116624 0.2749315698 0.5616925128 0.7792382084 0.4616579146 0.7554644146 0.3393622932 0.5253686761 0.7491434815 0.3251165509 0.5221874847 0.7310379855 0.1923238085 0.5211110921 0.6605264962 0.0750018271 0.2089067224 0.6490922231 0.1078240796 0.2421729553 0.6082328663 0.1071851482 0.3161806697 0.5368086203 0.0942203777 0.3297719112 0.6497675791 0.8867016705 0.4452708569 0.6558291127 0.9007448394 0.3525089420 0.6572084928 0.9097054910 0.3464138675 0.7437355691 0.9446354436 0.5283424033 0.6975300017 0.9102990899 0.3310050953 0.7118972054 0.2412330015 0.2823343766 0.6923347720 0.1618255987 0.4376723139 0.7639627267 0.3793138119 0.3440303645 0.7707361975 0.3872261081 0.3523742195 0.5690857456 0.3189438036 0.3113897769 0.5335521917 0.2357776479 0.4478722309 0.4819231934 0.2672514500 0.3471249732 0.4709354804 0.3273644666 0.5039598057 0.4582444057 0.3355683675 0.5055515342 0.3861284045 0.4139791920 0.4441340806 0.5795579405 0.5972598112 0.5628806914 0.1272838458 0.2954927129 0.0794084513 0.1210210670 0.2920261636 0.0845421243 0.1781398906 0.3772365618 0.0528340648 0.1491833711 0.4388049633 0.0568122991 0.0950507717 0.4146558282 0.1045548711 0.2077566511 0.4386277197 0.0527660075 0.1964206125 0.4344288646 0.0567133989 0.2718641272 0.5419341961 0.0599528754 0.1116347668 0.4730200869 0.1348037569 0.1123435735 0.4827929144 0.1420341095 0.1047359575 0.4920116911 0.1450392145 0.0995438285 0.5073286569 0.1534462087 0.1196632431 0.6091649241 0.0768635896 0.1243071998 0.6141220135 0.0785443131 0.0731064845 0.6660889287 0.2039462774 0.0764847402 0.6738821951 0.1942227702 0.1368994236 0.3952855524 0.2410308978 0.2422137737 0.3041293408 0.2229848206 0.2365971537 0.2958153738 0.2228490100 0.2487074049 0.3044901950 0.2244123718 0.2293361012 0.2902095309 0.2219686286 0.2433837499 0.2948296570 0.2245378300 0.2197450584 0.2869285726 0.2202325950 0.2548637811 0.3066658327 0.2255151179 0.2368439859 0.2880815144 0.2239875074 0.2496218933 0.2953277441 0.2258880908 0.2609605141 0.3107899269 0.2263364308 0.2673071832 0.3172674222 0.2268950396 0.2743130884 0.3269069348 0.2271859552 0.0603284931 0.3238589158 0.2405527385 0.2818537440 0.3248944417 0.2291698587 0.2734198300 0.3270488767 0.3139751018 0.2819441997 0.3344278064 0.3145361817 0.0744067051 0.2508622353 0.2704874283 0.0724373926 0.1488438370 0.2300768042 0.1130175880 0.0685979686 0.2994123878 0.1289117844 0.0610856295 0.3107429590 0.2422542062 0.1318700379 0.3407272977 0.2508587244 0.1370574209 0.3419972484 0.2667445492 0.1556162226 0.3433602395 0.2741736590 0.1652456594 0.3438921590 0.2824447795 0.1696901712 0.3451598519 0.8679170801 0.1866464854 0.4388067808 0.8336792952 0.1057844220 0.4125787064 0.7587801837 0.1533925339 0.5977288073 0.7548255656 0.1422557772 0.5935157047 0.7470108458 0.1331164871 0.5912824725 0.2973204806 0.2801235293 0.5031617855 0.2898214100 0.2700269686 0.4140877510 0.2535000733 0.3450426053 0.3698641660 0.3102821910 0.3803418155 0.4286205277 0.6312884567 0.7388037131 0.5144371454 0.6934340710 0.6467633059 0.3835482041 0.7179963518 0.8411238157 0.5228715281 0.7601125821 0.7119198033 0.4431578193 0.7150690918 0.7763956023 0.3773374370 0.7224929956 0.7765644836 0.3764739965 0.7217499915 0.7830364131 0.3798922076 0.5481885701 0.5178814427 0.2034166719 0.6016774738 0.5231821491 0.2544422298 0.6024653652 0.5427592213 0.2596857978 0.6200442862 0.5473508357 0.0836205566 0.6262685322 0.5623858872 0.0836989333 0.6399074727 0.5592329867 0.0832589912 0.7413571831 0.6640251277 0.2510474456 0.8187180274 0.4748240847 0.2427191623 0.8265622503 0.4850385273 0.2453616793 0.7524098814 0.6663462493 0.2524263621 0.8342699130 0.4949644141 0.2478056241 0.7588462289 0.7526343309 0.1137501745 0.7644311437 0.6690107708 0.2538325399 0.7782264049 0.6723035872 0.2552960192 0.8026222866 0.7665644617 0.1615342717 0.8794317497 0.6238433111 0.0942665412 0.9217435283 0.5592538450 0.1912947569 0.8981110627 0.6354674806 0.0942530208 0.9265946421 0.6781198031 0.2684893650 0.9125156750 0.7262494919 0.2334572748 0.9396911432 0.6711487672 0.2630043627 0.3658526220 0.5765587152 0.0833473239 0.4803352688 0.7324424578 0.0279606145 0.4430330537 0.6659637481 0.0961073416 0.4495918125 0.6639638417 0.0952669111 0.4523358225 0.6598790728 0.0965933998 0.3894152274 0.1711526975 0.4216738702 0.3343309510 0.0835967648 0.4717569057 0.1711630084 0.1840696507 0.3885514266 0.2163987797 0.1306967750 0.4587593900 0.1403173503 0.0872419467 0.4244186116 0.9285702453 0.4500574564 0.5810549871 0.2542665530 0.1549644887 0.0768240069 0.2905345735 0.1241734369 0.1289607174 0.3212500944 0.0796918212 0.1134331773 0.3626136982 0.1664949977 0.0989912588 0.3618117529 0.1720329538 0.1001076911 0.3650574157 0.1699176036 0.1024754585 0.3680820549 0.1736262425 0.1065978369 0.3291205045 0.2036826333 0.1572356062 0.3370105623 0.2091298578 0.1616361051 0.0617468903 0.1503413610 0.5057995295 0.1851546148 0.1663329704 0.5386187197 0.1499009966 0.2658896636 0.5712991789 0.1483449678 0.2522235324 0.4787905284 0.0408595492 0.9382736767 0.1632801127 0.1579123105 0.9508839931 0.1726202485 0.1685813854 0.9468863885 0.1683301005 0.4623077152 0.4848418125 0.1661080792 0.4577480781 0.4752239305 0.1662387453 0.5258200133 0.3954505876 0.2669791765 0.8807307729 0.5610009732 0.0484159846 0.8724850993 0.5657494864 0.0455653214 0.8788724446 0.5639575559 0.0436099307 0.9528860459 0.5564840056 0.0824625511 0.0848631439 0.9509150253 0.2972594017 0.0909323219 0.9527348794 0.2984104567 0.1709237291 0.9291520487 0.3642662025 0.7712013269 0.0774326631 0.2849989790 0.7320445436 0.0975392260 0.3049634953 0.7245536507 0.0995462518 0.3031239760 0.8351613678 0.1252679756 0.3223784589 0.8416795254 0.1387116529 0.3278999114 0.7707171371 0.1908863619 0.2038470450 0.7747343102 0.1947193650 0.2066775513 0.3426298880 0.1902175640 0.5344587673 0.3550251310 0.1906344805 0.5362025751 0.4140014615 0.2829444921 0.5664154004 0.9549024471 0.6061793166 0.3610205419 0.8663843379 0.6117988344 0.4001128636 0.8999179741 0.4790676565 0.3659224571 0.9022709192 0.4738060755 0.3628364831 0.8960231838 0.4718838632 0.3635570392 0.9027218777 0.3807537828 0.2926235523 0.8058018497 0.0773934628 0.5900185026 0.3432517969 0.9113997945 0.0686959616 0.3482571334 0.9041870104 0.0728549626 0.2973777447 0.8399044662 0.0897858180 0.2988441530 0.8343474838 0.0890977218 0.8006527724 0.6605805719 0.3595349840 0.6844029843 0.6155010355 0.3399599217 0.6751680306 0.6201205939 0.3384223724 0.1505759912 0.9040901669 0.4534405181 0.1568613546 0.9069191463 0.4543829513 0.1183445439 0.9135207565 0.2299883284 0.1206158331 0.9131854683 0.2376249106 0.2538573338 0.3186010215 0.1147668129 0.2556201244 0.3240393734 0.1154070005 0.2607361559 0.3190395540 0.1151263819 0.2621687840 0.3245777396 0.1156876384 0.2673283421 0.3190369524 0.1154435761 0.2631777519 0.3301139077 0.1161664373 0.2685362944 0.3247195423 0.1158621480 0.3468118193 0.2670683797 0.0577853698 0.2798043755 0.4118688717 0.0597692936 0.1971447714 0.4195476208
[...]
      <PointData Scalars="overlap">
        <DataArray type="Float32" Name="overlap" format="ascii">
 0.0002253331 0.0000175395 0.0002057599 0.0000271584 0.0000865071 0.0000330856 0.0000067648 0.0000516379 0.0002478296 0.0002506850 0.0001090883 0.0000484528 0.0000727487 0.0004921557 0.0000268288 0.0002310260 0.0000930676 0.0000061027 0.0000060639 0.0001283354 0.0000224726 0.0000489045 0.0000315343 0.0000307177 0.0000235805 0.0000097748 0.0001205708 0.0000833661 0.0001926388 0.0001202375 0.0000299036 0.0000288085 0.0000077485 0.0000869413 0.0002829793 0.0000289959 0.0001988171 0.0000834250 0.0000473698 0.0000985453 0.0001044034 0.0001688794 0.0000243885 0.0000128807 0.0001826553 0.0000522661 0.0000013820 0.0000530504 0.0001661598 0.0000600382 0.0000789351 0.0002213848 0.0000634948 0.0000340819 0.0000157465 0.0000085511 0.0000551449 0.0002887685 0.0001531328 0.0000508010 0.0001168178 0.0000163249 0.0000950767 0.0000950578 0.0000264673 0.0003200647 0.0000191744 0.0000905507 0.0000912151 0.0000192361 0.0000291813 0.0000605508 0.0000071310 0.0000865006 0.0000181029 0.0000016255 0.0000080313 0.0000089260 0.0000386239 0.0001855104 0.0000087391 0.0000307618 0.0002616409 0.0001144586 0.0000377866 0.0001250304 0.0000100425 0.0000136738 0.0000040389 0.0000156591 0.0000166033 0.0000396996 0.0000069818 0.0000392893 0.0000273632 0.0001009311 0.0001227073 0.0000459863 0.0000055880 0.0000080618 0.0000275131 0.0000244282 0.0000817728 0.0000440520 0.0000531998 0.0000487443 0.0000603087 0.0000762170 0.0000622175 0.0000973941 0.0000385570 0.0000569106 0.0000139084 0.0001102886 0.0000158321 0.0000253941 0.0001249988 0.0001382277 0.0001231863 0.0000799842 0.0001380501 0.0000155707 0.0000301415 0.0000371604 0.0000322881 0.0000591808 0.0000282961 0.0000085506 0.0000406072 0.0001086565 0.0000464366 0.0000187239 0.0000024065 0.0000395106 0.0000015726 0.0000123706 0.0000048941 0.0000334170 0.0000390993 0.0000603940 0.0000185137 0.0000167119 0.0000083436 0.0000068168 0.0000120128 0.0000224021 0.0000203098 0.0000126761 0.0000104181 0.0000259947 0.0000088245 0.0001698634 0.0000139430 0.0000453901 0.0000111251 0.0000460555 0.0001709405 0.0000241111 0.0001046170 0.0002024691 0.0000361839 0.0000388919 0.0001536305 0.0000027276 0.0000400264 0.0002874788 0.0000075774 0.0000179308 0.0000144310 0.0000430206 0.0000045083 0.0000128714 0.0000078753 0.0000746894 0.0000377509 0.0000592832 0.0000611057 0.0000359137 0.0000599881 0.0000173360 0.0000350987 0.0000002247 0.0000569449 0.0000125188 0.0000176329 0.0000518947 0.0000191677 0.0000531275 0.0000302540 0.0000300199 0.0000205017 0.0000077516 0.0000283884 0.0000114109 0.0000228481 0.0000144937 0.0000044402 0.0000259330 0.0000157504 0.0000057298 0.0000675393 0.0000369944 0.0000020254 0.0000129040 0.0000076709 0.0000005220 0.0000399926 0.0000106946 0.0000494143 0.0000638956 0.0000373437 0.0002481440 0.0000715839 0.0000078621 0.0000103955 0.0000073951 0.0000071194 0.0000117467 0.0000364475 0.0000336885 0.0000537934 0.0000648179 0.0000026773 0.0000081203 0.0000881351 0.0000310364 0.0000607814 0.0000854040 0.0000026535 0.0000074555 0.0000563092 0.0000903190 0.0000005486 0.0000288930 0.0000795785 0.0001168539 0.0003505915 0.0003212799 0.0000395091 0.0000252558 0.0001374232 0.0001621444 0.0000228646 0.0000387122 0.0000069442 0.0000152686 0.0000602851 0.0000175447 0.0000222703 0.0000123422 0.0000312941 0.0000744967 0.0000535171 0.0000057766 0.0000332708 0.0000231231 0.0000207224 0.0000334085 0.0000189338 0.0000230739 0.0000277270 0.0000619113 0.0000030458 0.0000056360 0.0000216105 0.0000016509 0.0000079944 0.0000690054 0.0002010059 0.0001002758 0.0000704509 0.0000618223 0.0000253930 0.0000529895 0.0000843978 0.0000197692 0.0000510544 0.0000227405 0.0001328631 0.0000052344 0.0000218405 0.0000398961 0.0000060301 0.0000131396 0.0000071814 0.0000120833 0.0000693295 0.0000462724 0.0000084716 0.0000061331 0.0000201034 0.0000510343 0.0000427547 0.0000047588 0.0000223091 0.0000264170 0.0000096038 0.0000018312 0.0000133957 0.0000581750 0.0001162390 0.0000070536 0.0000208446 0.0000300902 0.0000082520 0.0000234308 0.0000218283 0.0000727450 0.0000746227 0.0000794065 0.0000092064 0.0000793314 0.0000033461 0.0000340976 0.0000165235 0.0000032180 0.0000092694 0.0000222779 0.0000323873 0.0000314929 0.0000290277 0.0000209609 0.0000060627 0.0000220230 0.0000136342 0.0000218785 0.0000040416 0.0000588249 0.0000080796 0.0000053773 0.0000114727 0.0000608112 0.0000874359 0.0000141945 0.0000076133 0.0000050775 0.0000504609 0.0000601845 0.0000344815 0.0000375561 0.0000593934 0.0000512086 0.0000145511 0.0000059813 0.0000102674 0.0000046120 0.0000062626 0.0000085919 0.0000097993 0.0000055378 0.0000459235 0.0000166774 0.0000076723 0.0000326083 0.0000233772 0.0000007278 0.0000053796 0.0000594697 0.0000460901 0.0000198257 0.0000226165 0.0000418936 0.0000146438 0.0000079080 0.0000069607 0.0000334864 0.0000269879 0.0000106287 0.0000221432 0.0000403936 0.0000195096 0.0000137565 0.0000140349 0.0000066037 0.0000152019 0.0000080269 0.0000100641 0.0000156018 0.0000151410 0.0000045881 0.0000049262 0.0000517268 0.0000115742 0.0000605150 0.0000295554 0.0000315143 0.0000094064 0.0000184255 0.0000044917 0.0000027910 0.0000039725 0.0000650303 0.0000060360 0.0000313642 0.0000111175 0.0000235747 0.0000132309 0.0000245228 0.0001356105
        </DataArray>
        <DataArray type="Float32" Name="contact normal" NumberOfComponents="3" format="ascii">
 0.9747555744 -0.1893133379 -0.1183724223 0.1555739292 0.9312606981 0.3294696721 -0.0006371680 0.6164441723 -0.7873983594 -0.2103070804 0.7157944050 -0.6658898571 0.1103640949 -0.0480303241 -0.9927300008 0.2338421909 -0.1107112516 -0.9659507485 0.5992053204 -0.7720070954 -0.2120330838 -0.3785341972 0.6351393525 -0.6732829007 -0.3288768791 0.6782702631 -0.6571068777 -0.1641726749 -0.9501203321 -0.2651767095 -0.8558113851 0.4668477556 0.2228004626 -0.1400033962 -0.4491058718 0.8824414796 -0.1479994495 -0.4748814040 0.8675158875 -0.1169578306 -0.3830528867 0.9162921760 -0.0083249403 0.0626801223 -0.9979989467 0.0267986935 -0.0943973186 -0.9951738422 -0.8319750319 -0.0603934697 0.5515162509 -0.4684037350 0.3948220904 -0.7903881692 -0.3784748763 -0.4904629627 -0.7849858917 0.4266453860 -0.1496894035 0.8919455124 0.4063583727 -0.1798462325 0.8958393860 -0.6620764065 -0.1481344101 -0.7346502763 0.5876628701 -0.7239376827 0.3613399822 -0.6340908543 -0.2069772903 -0.7450430791 -0.0676092276 -0.3232783316 -0.9438856460 -0.7624911228 0.1937174796 -0.6173174433 0.3124807410 -0.0294274682 0.9494681725 -0.7342372167 -0.5295579330 0.4248106698 -0.7988549147 -0.6010920410 0.0227855999 -0.0013698544 -0.9554467262 0.2951604257 0.3770214133 0.7929133321 0.4786891493 0.3335688520 -0.6196511253 -0.7104676656 0.7209807532 0.5217096757 -0.4560764933 0.7537182464 0.4852878277 -0.4431755063 0.2852028777 0.6836226123 -0.6718031278 -0.4732840419 -0.4351853648 -0.7659085545 0.2186632314 -0.1884357370 -0.9574332166 -0.6235802751 0.7261394961 -0.2896015759 -0.5201694198 0.6631041777 0.5382533086 -0.1223123723 -0.0632330998 -0.9904752691 -0.3277451170 0.7301528768 0.5995497600 -0.7229386236 0.6861783970 0.0807400400 0.4062273256 -0.7683036759 -0.4946603093 0.4403020904 -0.7260599683 -0.5281770457 0.1714137194 0.2531710739 0.9521143546 -0.4363230868 -0.6609519605 0.6105445683 -0.9456346490 -0.3248604149 -0.0155184231 0.6139398456 -0.7892922729 0.0097761938 0.5989309580 -0.8008005016 0.0005139688 0.5472189244 0.8316363391 0.0945116305 0.4998114100 0.7781990609 -0.3802561979 0.0644269478 -0.3623475773 0.9298136381 0.7572568530 -0.0105269417 0.6530323438 0.1054414828 0.2945937457 0.9497876703 -0.1809021175 0.8143276605 -0.5514933228 -0.1033725712 0.6607672596 -0.7434384575 -0.0957127194 0.2005465818 -0.9749975097 -0.2508222148 0.5934674619 0.7647774763 0.4792927474 -0.4879449580 -0.7295122893 0.2611671509 -0.8734864465 0.4108687711 -0.4050265351 0.2950859297 -0.8653772587 -0.5610671855 0.6174398417 -0.5513362452 0.6796836823 -0.6364851824 -0.3645774329 0.1152703799 -0.2602755994 -0.9586288916 0.2785769371 -0.2555829384 -0.9257819677 -0.1151295731 -0.6947391104 0.7099878519 -0.1319864823 -0.1364232989 -0.9818188489 0.1889916131 -0.3259882967 0.9262903436 0.1771371929 -0.3355329020 0.9252243439 -0.3539026093 0.6917227912 -0.6295018056 -0.5815555190 -0.3308922432 0.7431712465 -0.6850127963 -0.6446797579 0.3393309280 -0.3519587601 0.0409988499 -0.9351171721 0.2481253133 0.1400639308 -0.9585488637 0.6234800654 0.3239689793 -0.7115593500 0.9444714646 -0.0566727074 0.3236693635 0.9482903924 0.0855584527 0.3056551698 -0.4734710118 0.6020936230 -0.6428907139 -0.5584120444 0.4656548244 0.6865432056 -0.4312460064 0.6832492648 0.5892345238 0.1343171307 0.8425410452 -0.5216162340 -0.6365650460 -0.7534991934 0.1643895000 0.0926928066 -0.3335345395 0.9381698964 0.0489965655 -0.2190340315 0.9744862388 0.3163078107 0.5396108731 -0.7802368067 0.7737781062 0.4542856709 0.4414657082 0.3336550067 0.5760563082 -0.7462127487 0.2731776246 0.6214751552 -0.7342633158 0.8864807949 0.4479916797 -0.1159967898 -0.3029030557 -0.8435922085 -0.4433981559 -0.2974531366 0.9482577505 0.1110354453 -0.3437134624 0.8246703622 0.4491991200 -0.8803513929 -0.1147571215 -0.4602306248 -0.2751917762 -0.8528875563 -0.4436804059 -0.0722235672 -0.8079357122 -0.5848278732 -0.2014302249 0.9574081631 0.2068706691 -0.5934942442 0.7299766362 0.3389670967 -0.3922049925 -0.5327735232 0.7498850690 0.3396638374 0.5385653254 -0.7710874579 0.3862906192 0.5406384540 -0.7473216306 0.3396490662 0.5385644437 -0.7710945803 0.3396450898 0.5385642062 -0.7710964977 0.1126245314 -0.4601030613 0.8806934131 0.1108315939 -0.4528065993 0.8846934731 -0.0838067031 -0.9413543002 -0.3268463218 0.7067013253 -0.6148227114 -0.3500946592 0.4599559289 -0.3548449231 -0.8139567704 -0.2235072664 0.1352041173 0.9652794147 -0.2231802665 0.1347985645 0.9654117855 -0.2230407230 0.1346258966 0.9654681268 -0.2232272735 0.1348568561 0.9653927764 -0.2225759582 0.1340491952 0.9656556095 -0.2236679572 0.1354034186 0.9652142556 -0.2227689663 0.1342888374 0.9655778041 -0.2224659867 0.1339128377 0.9656998688 -0.1802083468 0.0818522637 0.9802168937 -0.2226745136 0.1341827349 0.9656143405 -0.2226592702 0.1344158853 0.9655854282 -0.2230725729 0.1349952592 0.9654091916 0.1669248027 -0.3145199652 -0.9344588283 -0.2215184571 0.1354750629 0.9656997880 0.2534591946 -0.2169812974 -0.9426969573 0.2505243279 -0.2101599969 -0.9450239874 0.4823443084 -0.3851704049 -0.7867577310 0.7374710930 0.4353332335 0.5163539124 0.4636736979 0.3371314020 -0.8193589687 0.8230583453 -0.5670168842 -0.0326621060 0.2197723207 -0.1326035827 -0.9664969823 0.2253272643 -0.1300542554 -0.9655638325 0.2248739710 -0.1264209477 -0.9661518727 0.2037519254 -0.0979199963 -0.9741133544 0.2245787692 -0.1254482956 -0.9663472986 0.1756572479 -0.7374309912 0.6521810060 0.1958837109 0.1959952244 0.9608410086 -0.0155796264 0.4234322673 -0.9057937901 -0.0707349641 0.3607703389 -0.9299684551 -0.1004559506 0.3256073562 -0.9401534192 -0.0743109668 0.1549469883 -0.9851240079 -0.3376739593 0.8585540186 0.3858254713 0.1560711722 -0.5231896273 0.8378033201 -0.3066346414 -0.9367092050 -0.1689705950 0.9258984911 0.1042716773 -0.3630969589 0.5340546573 0.5979773062 0.5976694439 -0.6750356048 -0.6277331550 -0.3876570885 -0.9195386757 0.3290354821 -0.2149052708 0.0689881268 -0.6885775679 0.7218736533 0.0714532355 -0.6715871004 0.7374721702 0.0633630324 -0.3691997263 0.9271875151 0.4348782933 0.8794780117 -0.1933889784 -0.3197013437 -0.5168022520 -0.7941703112 0.2726884158 0.5234807878 -0.8072229511 -0.0187485757 0.0079270767 0.9997928047 -0.0187584793 0.0079573433 0.9997923785 0.0753915936 -0.0381789369 0.9964228402 0.2195184708 -0.5921843732 -0.7753252925 -0.1204666059 0.3287108408 -0.9367160616 -0.1204797903 0.3287217074 -0.9367105525 0.2194899212 -0.5919964175 -0.7754768959 -0.1204914594 0.3287313246 -0.9367056765 0.1357820996 -0.0261333282 0.9903939977 0.2192795570 -0.5917303297 -0.7757394490 0.2181292290 -0.5917913705 -0.7760171476 -0.3180789293 -0.8153331468 0.4837950541 -0.2059574595 0.1752070088 0.9627481649 -0.8647633067 0.4792090904 -0.1501435017 -0.0545656465 0.3320566754 0.9416798578 -0.6879654799 0.4288404968 -0.5854906718 -0.0387301578 -0.7615578559 -0.6469386424 0.1346934980 -0.2781096602 -0.9510587146 0.6640576517 0.3246303078 -0.6735299536 -0.2386524368 -0.2963225662 0.9247907607 -0.1923028659 -0.3520425012 -0.9160162035 -0.1771638019 -0.3510683669 -0.9194367782 -0.1801674458 -0.3565763862 -0.9167294979 -0.8774162986 0.4309654455 0.2107354355 -0.5001391930 0.4190781419 -0.7577824877 0.5889325847 -0.5446856645 -0.5970560590 0.2174861783 -0.1596792563 -0.9629134423 0.9732608961 0.2296985428 0.0013444664 -0.6193137505 0.5275491017 -0.5815001494 0.9097933497 -0.4077804355 0.0774026955 0.6530843362 0.0527780389 -0.7554437956 0.1091008896 0.9771284469 0.1825294334 -0.6847307964 -0.2364548198 0.6893713475 -0.6894303367 -0.2314246433 0.6863879700 -0.6822145984 -0.2397801759 0.6907160842 -0.6643658359 -0.2351681167 0.7094462580 0.4877485517 -0.4803079823 -0.7289757146 0.7528396509 -0.6492580900 -0.1081498616 0.0332296482 0.4261970643 0.9040198299 -0.6546533700 0.4064368963 0.6373680369 -0.0726767557 -0.4846352673 -0.8716918876 -0.5033508014 -0.6987141686 0.5083664833 0.3390156901 0.2884285016 -0.8954760529 -0.2373872107 0.0128335253 -0.9713303315 -0.2615760194 -0.0587910000 -0.9633906811 0.7522860967 0.2694517955 0.6012165655 0.1439976732 -0.6094732309 0.7796198118 -0.4401260660 0.8365772682 0.3262323104 0.2696940361 0.7976517159 0.5394597919 0.2716262177 0.8386172487 0.4721655516 0.2090912715 0.6355613706 -0.7431975406 -0.3845814020 0.7536677392 -0.5329935123 -0.2919758212 0.6684388630 0.6840611130 -0.2518888488 0.6666780738 0.7014929464 -0.8247826076 0.4462154739 0.3473116771 -0.1772979070 0.9573741197 0.2280356269 0.3002265666 0.5922463372 -0.7477354377 0.2806553036 0.5827386526 -0.7626586807 -0.2984416499 0.4463299807 -0.8436362545 -0.3000436621 0.4872088045 -0.8201227845 -0.1923655548 -0.5414376466 0.8184380051 -0.1957692607 -0.5312654596 0.8242762935 -0.4403284391 0.6284703582 -0.6411987794 0.0843765565 0.9896457632 0.1161114121 -0.6559059680 -0.6631169749 0.3606428132 -0.6477157308 -0.7391535740 -0.1847060532 0.6216474512 -0.6940027958 -0.3632004485 -0.4377062146 0.6554000488 -0.6155193301 -0.1216621871 0.3523876489 -0.9279123111 -0.2329594214 0.2568599352 -0.9379514282 -0.4786220980 0.7628191965 -0.4347732292 -0.1737037379 0.6567036621 0.7338714545 -0.7734240573 -0.6004236551 -0.2032404042 -0.7640772869 -0.6230891104 -0.1671701530 0.2986759783 0.2188554275 -0.9289213970 0.2974132683 0.2166325618 -0.9298471278 -0.2439379393 0.3579339550 -0.9013199019 0.3978142054 0.4542166073 -0.7971393427 0.3423480248 0.4963739024 -0.7977535828 -0.3679619419 0.7958033296 0.4809376985 -0.3649434578 0.8040827245 0.4693263735 -0.8854928184 0.3731738151 0.2768461165 -0.8869884520 0.3678066333 0.2792306691 0.0322035218 0.0956238058 -0.9948964876 0.0299035869 0.0983254118 -0.9947049255 0.0681933501 0.0531643830 -0.9962545937 0.0336701688 0.0939392961 -0.9950084062 0.0706239243 0.0502732822 -0.9962353429 0.0314997865 0.0964965985 -0.9948347450 0.0697323645 0.0513365728 -0.9962439228 -0.9735280389 0.2172828468 0.0709318126 -0.4238740662 -0.7489783299 -0.5092761897 0.4890292883 -0.6031943132 0.6300848957 0.0011450301 0.0684565597 -0.9976534410 0.1759364587 -0.2961182155 -0.9388079489 0.5084312185 -0.3526579842 -0.7855762485 0.1803350528 -0.9835924049 -0.0050249094 0.9711423231 -0.0971720034 -0.2178076906 -0.2651236408 -0.9614108987 0.0734747497 -0.2908625999 -0.5680925479 0.7698505082 0.6003668240 -0.1235712267 -0.7901201356 0.4877574969 0.4212437631 0.7646216818 -0.0680055217 -0.9155793285 -0.3963454833 -0.1219299161 0.3803856927 -0.9167550493 0.3198505580 -0.2090755708 0.9241120204 -0.6040772003 -0.0347604007 -0.7961673509 -0.2391610172 -0.6359412349 0.7337443381 -0.2315502549 -0.6370172193 0.7352506659 0.8045628197 -0.5925188992 0.0400002904 0.5654665508 -0.0073236943 0.8247387122 0.0996594985 0.7560937209 0.6468309436 -0.1534759375 0.6421886873 -0.7510251837 0.7465905667 0.1815146701 -0.6400429285 0.1414887535 -0.5278152950 -0.8374914608 -0.6001550747 -0.5560302286 -0.5750167574 -0.2655277494 0.5367714176 -0.8008567035 -0.8479727799 -0.3158350231 -0.4256646599 -0.7710797198 -0.1248549048 -0.6243775449 0.3590314019 0.2544343431 -0.8979752878 0.3518002283 0.2536808992 -0.9010452823 0.3589463072 0.2544594583 -0.8980021897 0.4646796197 -0.0593401341 0.8834883132 -0.0937016800 -0.1858338400 -0.9781031536 -0.0848818371 -0.1981141158 -0.9764967337 -0.1139182031 -0.6161850409 -0.7793193430 0.0885990587 0.1653798881 0.9822421796 0.7157449595 -0.2994644518 -0.6308963425 0.8781503158 0.0218789233 0.4778842283 0.4081555841 0.9091514913 -0.0827803421 0.9198113254 -0.1472140054 -0.3636965248 0.4277945008 0.5480233153 -0.7187922585 0.4394596130 0.5374380546 -0.7197468902 -0.0485470595 -0.6506535814 0.7578212850 -0.0481453281 -0.6506583236 0.7578428421 -0.0497878376 -0.6508237800 0.7575946004 -0.0495899270 -0.6508273010 0.7576045561 -0.0496821364 -0.6508521891 0.7575771336 0.3639482109 -0.0156259149 -0.9312881029 0.9432773165 0.2503031880 -0.2181197339 -0.4285747705 0.5269057631 0.7339577528 -0.4289657964 0.5264801307 0.7340347522 -0.4345291849 0.5250766515 0.7317642363 -0.7262245117 0.3025866146 0.6172838077 -0.0362788558 0.2405692930 -0.9699537411 0.0041126711 0.2892688670 -0.9572390551 0.0163359449 0.3096381232 -0.9507141366 0.2013703016 0.3973490238 -0.8953009298 0.1078199267 0.8494447858 -0.5165446924 -0.3692994617 -0.1432368023 -0.9182053834 -0.2699976625 0.0784227157 -0.9596619925 -0.3530757237 -0.2886969357 0.8899391062 -0.3215941482 -0.9253116619 -0.2009366374 0.2932608290 -0.5837315713 -0.7571364070 -0.0298860818 -0.6451736261 -0.7634512521 0.2668482779 0.3719985916 -0.8890495174 0.3191474401 0.1144510334 -0.9407687667 -0.3964195476 0.0135383014 -0.9179696382 -0.3971688971 0.0123306265 -0.9176626955 -0.3732123222 0.0502593624 -0.9263835917 -0.3734298348 0.0499680264 -0.9263116942 0.1842421710 -0.3894852164 0.9024168043 -0.2693605082 0.0358344737 -0.9623724888 -0.2119788596 0.0192442161 -0.9770847574 -0.0860976812 -0.1622326058 0.9829892018 0.6306141561 -0.6960730781 -0.3432317818 0.6343441128 -0.6934168337 -0.3417318265 -0.2452334512 0.8945676643 -0.3736432101 -0.4035259610 0.9128080030 0.0628358849 -0.5503005560 -0.7400323968 0.3866799061 0.1735313568 0.3615624377 -0.9160564785 0.1744389305 0.3463885989 -0.9217298943 0.3688362283 -0.7351874256 -0.5687348115 -0.4895678650 -0.5444976938 -0.6810620875 0.0874883236 0.4826754165 0.8714185192 0.0729874995 0.4577593146 0.8860751858 0.2545709631 0.7718881892 -0.5825652308 0.2177889006 0.8018515361 -0.5564190047 -0.1614249284 -0.9838722703 0.0770541896 -0.0928315253 0.9011110451 0.4235341690 -0.4452306248 -0.8639931173 -0.2351288669 0.7007692608 -0.1018086844 0.7060859968 0.7781013979 -0.0149241566 0.6279613715 -0.1273768222 -0.6337191592 0.7630040448 -0.1228643584 -0.6298758469 0.7669164015 -0.1273456046 -0.6337442298 0.7629884325 -0.1228341834 -0.6299752475 0.7668395862 -0.1228912390 -0.6300231790 0.7667910649 -0.0929901302 -0.6040552691 0.7914986214 -0.1219891910 -0.6310559079 0.7660855555 -0.0935323059 -0.6037217057 0.7916892129 -0.0934109078 -0.6036262596 0.7917763201 -0.0310403987 0.6017004395 0.7981184591 0.5127590661 0.8092012603 -0.2868300201 0.9208304187 0.2509968619 0.2984491838 -0.0789410377 0.2649894326 -0.9610145229 -0.0745073881 0.2682533200 -0.9604628079 -0.0701839536 0.2713627778 -0.9599148168 0.3275292752 0.4936530935 -0.8056247248 0.6858884392 0.7189513177 0.1125435546 -0.1523937077 -0.6449722692 0.7488570824 -0.1524418441 -0.6449502465 0.7488662522 -0.1524553068 -0.6449479032 0.7488655297 -0.1524072043 -0.6449534211 0.7488705687 -0.1524378396 -0.6449499148 0.7488673530 -0.1524578093 -0.6449475933 0.7488652871 -0.1524545584 -0.6449479678 0.7488656265 -0.1523880476 -0.6449556270 0.7488725674 -0.1524030796 -0.6449538960 0.7488709992 0.0626355495 0.755247241