<?xml version="1.0"?>
<VTKFile type="UnstructuredGrid" version="0.1" byte_order="LittleEndian">
  <UnstructuredGrid>
    <FieldData>
      <DataArray type="Float32" Name="TIME"  NumberOfTuples="1" format="ascii"> 5.3000000000 </DataArray>
      <DataArray type="Int32"   Name="STEP"  NumberOfTuples="1" format="ascii"> 530000 </DataArray>
    </FieldData>
    <Piece NumberOfPoints="399" NumberOfCells="399">
      <Points>
        <DataArray type="Float32" NumberOfComponents="3" format="ascii">
 0.4248653119 0.2068253769 0.0759429799 0.5299832358 0.1286327099 0.0400907546 0.5050733580 0.1472906699 0.1825917145 0.6403307481 0.1082662633 0.1124597186 0.5396124358 0.3646966433 0.2040007401 0.5528625436 0.3591024335 0.2072266861 0.5678908486 0.4472843549 0.1939270228 0.7522015102 0.1787390773 0.1457377544 0.7585132873 0.1855915936 0.1501548062 0.6781370839 0.4551489776 0.1694660491 0.8496088402 0.2321592580 0.1150671716 0.7816290760 0.3733977800 0.0369726899 0.7953317135 0.3703148069 0.0373492200 0.8168259448 0.3857435871 0.0431750100 0.8042875755 0.3963506367 0.2240356321 0.8177013957 0.3880443442 0.2261941087 0.8970056419 0.3686629826 0.1723159121 0.7489579375 0.3245511889 0.6726897733 0.7715939767 0.2992915090 0.6582642018 0.7860265316 0.3638992959 0.5621524387 0.8677399034 0.6052374931 0.5111381257 0.9118155520 0.5556476840 0.5587197779 0.8933346259 0.6065767395 0.4947004950 0.9262233515 0.5446450096 0.5458336349 0.9417329258 0.3093608881 0.5254674992 0.9349242191 0.3343192596 0.5344041602 0.9466583289 0.4740604982 0.4508196870 0.2426831568 0.7997984637 0.0414070226 0.2550042975 0.8173394092 0.0914574678 0.0745409175 0.9091236979 0.1097904438 0.1543236916 0.7223196193 0.0815085601 0.0388482851 0.8885768089 0.1662306031 0.0554834019 0.8047839712 0.1553462538 0.0622455475 0.7985058754 0.1588805334 0.1716658775 0.7198411974 0.1453823059 0.1846704740 0.8263778370 0.1958309994 0.5696631507 0.7614162934 0.2455274567 0.6836963204 0.7584634363 0.2617671651 0.6518275559 0.7389199005 0.1620808769 0.7064504296 0.8129148568 0.2796415488 0.6573957624 0.7424564264 0.1621261465 0.6559154842 0.7439888116 0.1560629095 0.6050549487 0.8504651030 0.2446687541 0.6094918300 0.8548462283 0.2417822290 0.5207965205 0.7623145439 0.0984627474 0.7326511932 0.8581096086 0.2193669206 0.7273901695 0.8568456923 0.2066722585 0.5647767650 0.8549311211 0.1613299494 0.5655444285 0.8555398343 0.1539492742 0.1730877872 0.4807040932 0.3236707597 0.1676976257 0.4846859929 0.4415929744 0.1372092317 0.6603892058 0.2434472277 0.0843619679 0.6890418344 0.2636712250 0.1610016306 0.6613730422 0.2414229342 0.2576846888 0.4522146456 0.3447867242 0.2908206927 0.4616812107 0.4187220012 0.2909884153 0.5655095307 0.4523289020 0.3086335094 0.4589965700 0.2813322461 0.1182085915 0.7733039616 0.4080897994 0.2713209636 0.7854265235 0.2555510341 0.4240758042 0.5343445383 0.4164821066 0.4308565427 0.5455605481 0.4205667816 0.2460006436 0.8876088397 0.3715553278 0.3711232537 0.8402720388 0.4486935114 0.3884540523 0.8571712601 0.4473815453 0.4440474380 0.9114116535 0.2749313472 0.5616928197 0.7792378805 0.4616571939 0.7554640009 0.3393617283 0.5253681860 0.7491430989 0.3251159557 0.5221870942 0.7310386603 0.1923230295 0.5211119550 0.6605265678 0.0750019251 0.2089066158 0.6490921776 0.1078240766 0.2421729161 0.6082327743 0.1071849999 0.3161805471 0.5368085414 0.0942200970 0.3297717638 0.6497671883 0.8867019802 0.4452709087 0.6558286339 0.9007449348 0.3525089866 0.6572080425 0.9097055718 0.3464138953 0.7437354471 0.9446356031 0.5283422598 0.6975295182 0.9102990141 0.3310050681 0.7118970342 0.2412325718 0.2823341024 0.6923344209 0.1618252714 0.4376720248 0.7639626400 0.3793133304 0.3440299294 0.7707361090 0.3872256083 0.3523738363 0.5690856542 0.3189434037 0.3113892692 0.5335518583 0.2357773996 0.4478717410 0.4819230902 0.2672512107 0.3471243761 0.4709351694 0.3273643585 0.5039590949 0.4582441043 0.3355682820 0.5055507859 0.3861282570 0.4139790992 0.4441331737 0.5795577448 0.5972596580 0.5628797978 0.1272838908 0.2954924589 0.0794081429 0.1210211075 0.2920259245 0.0845417950 0.1781400941 0.3772362801 0.0528338587 0.1491836824 0.4388046343 0.0568121297 0.0950510757 0.4146556620 0.1045547375 0.2077567876 0.4386274663 0.0527657139 0.1964207261 0.4344285794 0.0567131071 0.2718642380 0.5419338492 0.0599526048 0.1116348873 0.4730197675 0.1348033874 0.1123436885 0.4827925944 0.1420337418 0.1047360718 0.4920113747 0.1450388353 0.0995439373 0.5073283425 0.1534458225 0.1196633697 0.6091645288 0.0768633065 0.1243073251 0.6141216181 0.0785440353 0.0731065480 0.6660887213 0.2039458971 0.0764847502 0.6738819148 0.1942223736 0.1368993610 0.3952855731 0.2410305742 0.2422135690 0.3041291757 0.2229846165 0.2365969398 0.2958152149 0.2228488146 0.2487072002 0.3044900245 0.2244121690 0.2293358814 0.2902093790 0.2219684381 0.2433835345 0.2948294925 0.2245376375 0.2197448354 0.2869284293 0.2202324062 0.2548635785 0.3066656566 0.2255149142 0.2368437632 0.2880813566 0.2239873213 0.2496216778 0.2953275744 0.2258879015 0.2609603157 0.3107897451 0.2263362238 0.2673069919 0.3172672340 0.2268948265 0.2743129077 0.3269067392 0.2271857321 0.0603283297 0.3238590426 0.2405526027 0.2818535605 0.3248942402 0.2291696406 0.2734197305 0.3270488393 0.3139747789 0.2819441098 0.3344277593 0.3145358427 0.0744064588 0.2508624023 0.2704874325 0.0724370268 0.1488439595 0.2300770583 0.1130171023 0.0685981443 0.2994127325 0.1289113062 0.0610857923 0.3107433152 0.2422538361 0.1318701084 0.3407274255 0.2508583621 0.1370574821 0.3419973620 0.2667442127 0.1556162648 0.3433603117 0.2741733360 0.1652456925 0.3438922091 0.2824444630 0.1696901953 0.3451598903 0.8679174377 0.1866464503 0.4388065708 0.8336800152 0.1057842051 0.4125786600 0.7587816843 0.1533916905 0.5977292006 0.7548271122 0.1422549084 0.5935161209 0.7470124369 0.1331155719 0.5912829243 0.2973194487 0.2801238316 0.5031616513 0.2898209991 0.2700269935 0.4140876063 0.2535001326 0.3450425679 0.3698635754 0.3102818953 0.3803418462 0.4286201971 0.6312887693 0.7388037449 0.5144378585 0.6934335536 0.6467633141 0.3835484887 0.7179965560 0.8411239947 0.5228715177 0.7601124578 0.7119199898 0.4431576053 0.7150683412 0.7763956563 0.3773375210 0.7224922418 0.7765645179 0.3764740613 0.7217492508 0.7830364754 0.3798922785 0.5481883759 0.5178812450 0.2034166383 0.6016773112 0.5231819888 0.2544421964 0.6024652011 0.5427590628 0.2596857107 0.6200440410 0.5473506232 0.0836205189 0.6262682851 0.5623856755 0.0836988891 0.6399072277 0.5592327757 0.0832589261 0.7413569902 0.6640249737 0.2510473065 0.8187178539 0.4748239388 0.2427190099 0.8265620771 0.4850383817 0.2453615251 0.7524096903 0.6663460929 0.2524262127 0.8342697401 0.4949642687 0.2478054680 0.7588459668 0.7526341428 0.1137499736 0.7644309545 0.6690106117 0.2538323792 0.7782262178 0.6723034250 0.2552958453 0.8026220596 0.7665643227 0.1615340558 0.8794314876 0.6238431430 0.0942664061 0.9217433796 0.5592536638 0.1912945704 0.8981108092 0.6354673189 0.0942528589 0.9265944436 0.6781196781 0.2684891288 0.9125154690 0.7262493395 0.2334570365 0.9396909580 0.6711486310 0.2630041226 0.3658526043 0.5765587840 0.0833475254 0.4803351320 0.7324424027 0.0279602831 0.4430330195 0.6659638315 0.0961071932 0.4495917798 0.6639639277 0.0952667674 0.4523357929 0.6598791633 0.0965932643 0.3894149584 0.1711525997 0.4216738348 0.3343304518 0.0835968866 0.4717569227 0.1711627750 0.1840700474 0.3885514864 0.2163984308 0.1306971452 0.4587594979 0.1403169429 0.0872424917 0.4244188038 0.9285703973 0.4500575927 0.5810543283 0.2542664386 0.1549636618 0.0768234721 0.2905346704 0.1241727069 0.1289600590 0.3212505064 0.0796914168 0.1134323411 0.3626134802 0.1664948676 0.0989906676 0.3618115166 0.1720328209 0.1001070997 0.3650571870 0.1699174827 0.1024748662 0.3680818055 0.1736261295 0.1065972523 0.3291200238 0.2036821394 0.1572352529 0.3370101289 0.2091293268 0.1616356688 0.0617467759 0.1503419458 0.5057998269 0.1851545440 0.1663334151 0.5386189512 0.1499010850 0.2658902038 0.5712992930 0.1483449705 0.2522239235 0.4787906933 0.0408594915 0.9382737048 0.1632799137 0.1579122280 0.9508840593 0.1726202931 0.1685813105 0.9468864502 0.1683301639 0.4623076475 0.4848411686 0.1661080137 0.4577480672 0.4752232511 0.1662386958 0.5258203680 0.3954503523 0.2669791703 0.8807306262 0.5610005796 0.0484159788 0.8724849374 0.5657490708 0.0455653248 0.8788722808 0.5639571436 0.0436099568 0.9528859508 0.5564838404 0.0824624494 0.0848626972 0.9509148378 0.2972595063 0.0909318964 0.9527346542 0.2984105318 0.1709234601 0.9291515070 0.3642659947 0.7712013217 0.0774325500 0.2849990604 0.7320445160 0.0975391298 0.3049635033 0.7245536264 0.0995461548 0.3031239701 0.8351613247 0.1252679152 0.3223785093 0.8416794765 0.1387116044 0.3278999411 0.7707172386 0.1908860752 0.2038469199 0.7747344080 0.1947190817 0.2066774266 0.3426286468 0.1902178145 0.5344582860 0.3550239050 0.1906347042 0.5362020148 0.4140006410 0.2829445957 0.5664144841 0.9549017118 0.6061794735 0.3610205842 0.8663835594 0.6117987196 0.4001128513 0.8999175589 0.4790676915 0.3659223323 0.9022705371 0.4738061013 0.3628363476 0.8960228080 0.4718838605 0.3635569228 0.9027217941 0.3807538617 0.2926233766 0.8058034838 0.0773925940 0.5900188754 0.3432514214 0.9113998186 0.0686959566 0.3482567568 0.9041870318 0.0728549539 0.2973775723 0.8399043661 0.0897858272 0.2988439939 0.8343473861 0.0890977387 0.8006526707 0.6605804753 0.3595347486 0.6844028448 0.6155009072 0.3399599598 0.6751679013 0.6201204795 0.3384223958 0.1505755870 0.9040898175 0.4534405966 0.1568609671 0.9069187872 0.4543829684 0.1183443601 0.9135208208 0.2299883539 0.1206156364 0.9131855156 0.2376249392 0.2538573879 0.3186007402 0.1147666562 0.2556201723 0.3240390930 0.1154068521 0.2607362093 0.3190392763 0.1151262440 0.2621688307 0.3245774640 0.1156875058 0.2673283954 0.3190366797 0.1154434534 0.2631777932 0.3301136331 0.1161663115 0.2685363424 0.3247192700 0.1158620318 0.3468120551 0.2670682832 0.0577854900 0.2798045571 0.4118686945 0.0597694146 0.1971449211 0.4195477391
[...]
      <PointData Scalars="overlap">
        <DataArray type="Float32" Name="overlap" format="ascii">
 0.0002253903 0.0000175257 0.0002058121 0.0000271806 0.0000865515 0.0000332003 0.0000068123 0.0000516870 0.0002478861 0.0002507596 0.0001091126 0.0000485714 0.0000728605 0.0004922861 0.0000269688 0.0002311560 0.0000930834 0.0000060873 0.0000060873 0.0001283124 0.0000225053 0.0000490032 0.0000314038 0.0000305617 0.0000236281 0.0000097527 0.0001206576 0.0000833730 0.0001926445 0.0001201514 0.0000299778 0.0000288178 0.0000077399 0.0000869631 0.0002829882 0.0000289429 0.0001991889 0.0000834700 0.0000473064 0.0000985615 0.0001043239 0.0001687926 0.0000242619 0.0000128072 0.0001829358 0.0000523888 0.0000013926 0.0000530410 0.0001661913 0.0000601034 0.0000790163 0.0002214072 0.0000634822 0.0000340675 0.0000158405 0.0000084965 0.0000553045 0.0002888632 0.0001530542 0.0000509097 0.0001170402 0.0000165769 0.0000949795 0.0000952707 0.0000262580 0.0003201429 0.0000193423 0.0000905930 0.0000910203 0.0000192354 0.0000291477 0.0000606363 0.0000071995 0.0000864475 0.0000181758 0.0000016393 0.0000080622 0.0000088943 0.0000386276 0.0001857567 0.0000087562 0.0000307518 0.0002617512 0.0001146328 0.0000376457 0.0001252121 0.0000100346 0.0000137050 0.0000041112 0.0000157358 0.0000164953 0.0000395940 0.0000069879 0.0000395415 0.0000273681 0.0001010942 0.0001228372 0.0000460934 0.0000056217 0.0000080862 0.0000275531 0.0000244713 0.0000820079 0.0000442968 0.0000529642 0.0000486144 0.0000603096 0.0000762232 0.0000621992 0.0000974131 0.0000385158 0.0000569034 0.0000138441 0.0001103230 0.0000158010 0.0000254035 0.0001250518 0.0001383034 0.0001232909 0.0000799971 0.0001381668 0.0000156756 0.0000302375 0.0000371717 0.0000324359 0.0000591980 0.0000283321 0.0000085775 0.0000406305 0.0001086668 0.0000464422 0.0000187242 0.0000024254 0.0000395798 0.0000015849 0.0000123640 0.0000048941 0.0000334576 0.0000390576 0.0000604740 0.0000185429 0.0000166903 0.0000082313 0.0000068385 0.0000119398 0.0000224598 0.0000204631 0.0000128096 0.0000104097 0.0000259344 0.0000088860 0.0001699289 0.0000140074 0.0000454226 0.0000111061 0.0000460935 0.0001709706 0.0000241058 0.0001046395 0.0002024139 0.0000361936 0.0000389190 0.0001535471 0.0000028488 0.0000399022 0.0002875677 0.0000076157 0.0000179556 0.0000144550 0.0000430754 0.0000044910 0.0000129562 0.0000079378 0.0000747458 0.0000377521 0.0000594489 0.0000611818 0.0000359093 0.0000601311 0.0000172903 0.0000351818 0.0000001890 0.0000570666 0.0000125339 0.0000175923 0.0000518806 0.0000191487 0.0000528783 0.0000303087 0.0000299896 0.0000204869 0.0000077679 0.0000284872 0.0000113821 0.0000228833 0.0000145539 0.0000044348 0.0000259705 0.0000158633 0.0000057047 0.0000675168 0.0000369285 0.0000020663 0.0000128138 0.0000077336 0.0000004597 0.0000400244 0.0000106613 0.0000493862 0.0000639209 0.0000373770 0.0002481681 0.0000716148 0.0000078734 0.0000104006 0.0000073427 0.0000071168 0.0000117440 0.0000365471 0.0000337719 0.0000538233 0.0000648481 0.0000026872 0.0000081278 0.0000881986 0.0000310304 0.0000607604 0.0000854638 0.0000026000 0.0000074653 0.0000561314 0.0000902554 0.0000005575 0.0000288794 0.0000796206 0.0001169125 0.0003506485 0.0003213571 0.0000395847 0.0000253472 0.0001375154 0.0001622814 0.0000228988 0.0000387847 0.0000069707 0.0000152613 0.0000603298 0.0000176119 0.0000221189 0.0000122422 0.0000312358 0.0000745067 0.0000535307 0.0000058055 0.0000331960 0.0000231217 0.0000207652 0.0000334436 0.0000189583 0.0000231423 0.0000276564 0.0000619736 0.0000030883 0.0000056499 0.0000215700 0.0000015175 0.0000080770 0.0000689903 0.0002010409 0.0001003575 0.0000705134 0.0000618496 0.0000254498 0.0000530888 0.0000844931 0.0000197731 0.0000509747 0.0000228095 0.0001329230 0.0000052695 0.0000218500 0.0000399305 0.0000060938 0.0000133166 0.0000072936 0.0000121574 0.0000693083 0.0000461120 0.0000085523 0.0000061797 0.0000202878 0.0000510165 0.0000425144 0.0000046128 0.0000223280 0.0000264376 0.0000096357 0.0000018737 0.0000133472 0.0000581664 0.0001162923 0.0000070052 0.0000208108 0.0000300643 0.0000081923 0.0000234071 0.0000218574 0.0000728186 0.0000745716 0.0000794616 0.0000091461 0.0000792692 0.0000033935 0.0000339711 0.0000164607 0.0000033745 0.0000091370 0.0000222626 0.0000323726 0.0000314840 0.0000290204 0.0000209647 0.0000060590 0.0000220173 0.0000136407 0.0000218546 0.0000040509 0.0000588566 0.0000081183 0.0000052766 0.0000115032 0.0000607684 0.0000874995 0.0000141694 0.0000075349 0.0000050945 0.0000504261 0.0000601926 0.0000344397 0.0000376065 0.0000593932 0.0000512502 0.0000146206 0.0000061274 0.0000103903 0.0000044330 0.0000064763 0.0000087067 0.0000098082 0.0000055299 0.0000459291 0.0000166872 0.0000076857 0.0000326477 0.0000233940 0.0000007614 0.0000054091 0.0000594899 0.0000461164 0.0000197946 0.0000226693 0.0000418976 0.0000146656 0.0000079464 0.0000069584 0.0000335517 0.0000269965 0.0000106087 0.0000221839 0.0000403861 0.0000195052 0.0000138156 0.0000139803 0.0000066140 0.0000152046 0.0000080457 0.0000100683 0.0000156343 0.0000150748 0.0000046046 0.0000049396 0.0000517255 0.0000115816 0.0000606144 0.0000295738 0.0000316832 0.0000091885 0.0000186784 0.0000045347 0.0000027744 0.0000039317 0.0000650693 0.0000060754 0.0000313368 0.0000107826 0.0000235998 0.0000132072 0.0000245311 0.0001356656
        </DataArray>
        <DataArray type="Float32" Name="contact normal" NumberOfComponents="3" format="ascii">
 0.9747550030 -0.1893164422 -0.1183721622 0.1555793928 0.9312610040 0.3294662275 -0.0006373932 0.6164454059 -0.7873973935 -0.2103084582 0.7157935394 -0.6658903524 0.1103605185 -0.0480280883 -0.9927305066 0.2338382833 -0.1107096107 -0.9659518825 0.5992089428 -0.7720042723 -0.2120331256 -0.3785353257 0.6351394507 -0.6732821737 -0.3288779358 0.6782704127 -0.6571061943 -0.1641725411 -0.9501198887 -0.2651783811 -0.8558114317 0.4668473482 0.2228011373 -0.1400024894 -0.4491045813 0.8824422803 -0.1479984147 -0.4748797849 0.8675169504 -0.1169571693 -0.3830521730 0.9162925588 -0.0083251950 0.0626826792 -0.9979987840 0.0267991914 -0.0943949243 -0.9951740559 -0.8319760564 -0.0603934265 0.5515147102 -0.4684023894 0.3948260325 -0.7903869974 -0.3784748311 -0.4904581712 -0.7849889073 0.4266634751 -0.1496804259 0.8919383662 0.4063617494 -0.1798441998 0.8958382624 -0.6620723741 -0.1481332761 -0.7346541390 0.5876593398 -0.7239401699 0.3613407406 -0.6340865757 -0.2069760143 -0.7450470751 -0.0676121359 -0.3232728842 -0.9438873033 -0.7624904180 0.1937208490 -0.6173172564 0.3124869351 -0.0294232029 0.9494662661 -0.7342356972 -0.5295599184 0.4248108212 -0.7988529892 -0.6010945610 0.0227866292 -0.0013703888 -0.9554464079 0.2951614535 0.3770205219 0.7929113567 0.4786931235 0.3335715617 -0.6196493560 -0.7104679365 0.7209797292 0.5217119746 -0.4560754824 0.7537173844 0.4852900903 -0.4431744946 0.2852099503 0.6836266878 -0.6717959779 -0.4732845180 -0.4351847312 -0.7659086204 0.2186569727 -0.1884285578 -0.9574360589 -0.6235805644 0.7261394089 -0.2896011717 -0.5201700109 0.6631038781 0.5382531065 -0.1223065662 -0.0632335823 -0.9904759553 -0.3277453776 0.7301530108 0.5995494544 -0.7229385572 0.6861785159 0.0807396230 0.4062247563 -0.7683070482 -0.4946571814 0.4403004231 -0.7260633239 -0.5281738228 0.1714121623 0.2531720626 0.9521143720 -0.4363230872 -0.6609533897 0.6105430208 -0.9456347454 -0.3248601817 -0.0155174295 0.6139383911 -0.7892933635 0.0097794797 0.5989297974 -0.8008013674 0.0005175230 0.5472193089 0.8316365426 0.0945076135 0.4998126277 0.7781961496 -0.3802605553 0.0644273615 -0.3623467342 0.9298139380 0.7572565202 -0.0105248466 0.6530327635 0.1054410698 0.2946030936 0.9497848167 -0.1808990553 0.8143227264 -0.5515016130 -0.1033731072 0.6607670583 -0.7434385619 -0.0957020360 0.2005443138 -0.9749990249 -0.2508211368 0.5934702441 0.7647756709 0.4793026435 -0.4879294415 -0.7295161657 0.2611684048 -0.8734888027 0.4108629649 -0.4050227764 0.2950858566 -0.8653790429 -0.5610640706 0.6174396356 -0.5513396459 0.6796890582 -0.6364789144 -0.3645783532 0.1152688204 -0.2602666967 -0.9586314963 0.2785752637 -0.2555751520 -0.9257846208 -0.1151280167 -0.6947406086 0.7099866383 -0.1319872750 -0.1364148564 -0.9818199154 0.1889900908 -0.3259876337 0.9262908875 0.1771357501 -0.3355321614 0.9252248887 -0.3539106899 0.6917211499 -0.6294990662 -0.5815552274 -0.3308904770 0.7431722611 -0.6850138239 -0.6446777770 0.3393326171 -0.3519574813 0.0410002195 -0.9351175933 0.2481332359 0.1400629850 -0.9585469511 0.6234747787 0.3239776954 -0.7115600138 0.9444706944 -0.0566729725 0.3236715644 0.9482898845 0.0855580814 0.3056568494 -0.4734696372 0.6020905151 -0.6428946370 -0.5584160316 0.4656549166 0.6865399000 -0.4312470050 0.6832491378 0.5892339403 0.1343172061 0.8425395080 -0.5216186975 -0.6365646071 -0.7535006916 0.1643843324 0.0926931135 -0.3335349102 0.9381697343 0.0489962699 -0.2190334423 0.9744863861 0.3163046304 0.5396069598 -0.7802408024 0.7737785532 0.4542854417 0.4414651607 0.3336596322 0.5760544479 -0.7462121165 0.2731821279 0.6214737308 -0.7342628460 0.8864808920 0.4479906628 -0.1159999745 -0.3028805685 -0.8435949309 -0.4434083375 -0.2974542710 0.9482577359 0.1110325308 -0.3437142361 0.8246728346 0.4491939891 -0.8803498234 -0.1147571269 -0.4602336258 -0.2751909128 -0.8528878601 -0.4436803575 -0.0722206759 -0.8079353761 -0.5848286946 -0.2014310289 0.9574076462 0.2068722786 -0.5934958586 0.7299753113 0.3389671234 -0.3922061737 -0.5327747771 0.7498835604 0.3396690669 0.5385653837 -0.7710851136 0.3862956721 0.5406384684 -0.7473190083 0.3396542968 0.5385645020 -0.7710922356 0.3396503212 0.5385642646 -0.7710941526 0.1126260252 -0.4601042244 0.8806926145 0.1108330786 -0.4528077489 0.8846926987 -0.0838019121 -0.9413535996 -0.3268495680 0.7066997049 -0.6148232976 -0.3500969007 0.4599532005 -0.3548446027 -0.8139584519 -0.2235084273 0.1352045298 0.9652790882 -0.2231814281 0.1347989770 0.9654114594 -0.2230418844 0.1346263085 0.9654678010 -0.2232284353 0.1348572689 0.9653924501 -0.2225771205 0.1340496069 0.9656552844 -0.2236691186 0.1354038321 0.9652139284 -0.2227701280 0.1342892489 0.9655774789 -0.2224671493 0.1339132496 0.9656995439 -0.1802095650 0.0818526350 0.9802166387 -0.2226756752 0.1341831461 0.9656140155 -0.2226604305 0.1344162964 0.9655851034 -0.2230737324 0.1349956704 0.9654088662 0.1669260650 -0.3145200340 -0.9344585796 -0.2215196044 0.1354754746 0.9656994670 0.2534596514 -0.2169838196 -0.9426962539 0.2505248055 -0.2101625372 -0.9450232959 0.4823440990 -0.3851712950 -0.7867574236 0.7374709064 0.4353342296 0.5163533391 0.4636699653 0.3371322010 -0.8193607522 0.8230606628 -0.5670135390 -0.0326617815 0.2197714868 -0.1326051201 -0.9664969610 0.2253264191 -0.1300558006 -0.9655638216 0.2248731165 -0.1264224737 -0.9661518719 0.2037511302 -0.0979214675 -0.9741133728 0.2245779040 -0.1254498044 -0.9663473038 0.1756592492 -0.7374322725 0.6521790181 0.1958885271 0.1959948861 0.9608400957 -0.0155832116 0.4234301552 -0.9057947158 -0.0707385740 0.3607681421 -0.9299690327 -0.1004595685 0.3256051138 -0.9401538092 -0.0743171840 0.1549477516 -0.9851234189 -0.3376707337 0.8585543691 0.3858275145 0.1560695680 -0.5231880368 0.8378046121 -0.3066368976 -0.9367086619 -0.1689695114 0.9259105298 0.1042788563 -0.3630641967 0.5340538730 0.5979775658 0.5976698850 -0.6750329565 -0.6277335761 -0.3876610182 -0.9195318522 0.3290470323 -0.2149167822 0.0689836523 -0.6885751239 0.7218764122 0.0714484364 -0.6715844866 0.7374750154 0.0633566114 -0.3691977462 0.9271887424 0.4348748278 0.8794796476 -0.1933893316 -0.3197023998 -0.5168072456 -0.7941666364 0.2726926794 0.5234781170 -0.8072232427 -0.0187462494 0.0079265659 0.9997928524 -0.0187561538 0.0079568330 0.9997924262 0.0753937935 -0.0381797007 0.9964226444 0.2195171916 -0.5921850470 -0.7753251400 -0.1204668737 0.3287112443 -0.9367158855 -0.1204800577 0.3287221105 -0.9367103767 0.2194886421 -0.5919970956 -0.7754767403 -0.1204917265 0.3287317274 -0.9367055008 0.1357726275 -0.0261318979 0.9903953340 0.2192782774 -0.5917310132 -0.7757392894 0.2181279470 -0.5917920636 -0.7760169793 -0.3180872127 -0.8153371457 0.4837828687 -0.2059564003 0.1752076468 0.9627482753 -0.8647639509 0.4792080951 -0.1501429683 -0.0545651135 0.3320573905 0.9416796365 -0.6879639085 0.4288463230 -0.5854882509 -0.0387451898 -0.7615562541 -0.6469396279 0.1346822255 -0.2781169002 -0.9510581938 0.6640587061 0.3246320994 -0.6735280506 -0.2386558405 -0.2963272482 0.9247883821 -0.1923009180 -0.3520432401 -0.9160163285 -0.1771619538 -0.3510691605 -0.9194368313 -0.1801655846 -0.3565771719 -0.9167295580 -0.8774162520 0.4309657569 0.2107349924 -0.5001308189 0.4190736778 -0.7577904833 0.5889325524 -0.5446862605 -0.5970555471 0.2174393656 -0.1597060032 -0.9629195786 0.9732606431 0.2296996353 0.0013409316 -0.6193097645 0.5275559036 -0.5814982236 0.9097919631 -0.4077833737 0.0774035140 0.6530798497 0.0527731577 -0.7554480152 0.1091233775 0.9771350895 0.1824804248 -0.6847315707 -0.2364524056 0.6893714064 -0.6894313236 -0.2314220446 0.6863878549 -0.6822151368 -0.2397779457 0.6907163266 -0.6643666469 -0.2351658164 0.7094462611 0.4877490048 -0.4803084095 -0.7289751299 0.7528385225 -0.6492573190 -0.1081623446 0.0332302616 0.4261983925 0.9040191812 -0.6546705152 0.4063725269 0.6373914700 -0.0726197793 -0.4846409301 -0.8716934877 -0.5033498501 -0.6987150653 0.5083661928 0.3390176179 0.2884311260 -0.8954744777 -0.2373880613 0.0128335451 -0.9713301233 -0.2615762644 -0.0587899600 -0.9633906780 0.7522887407 0.2694469421 0.6012154323 0.1439962876 -0.6094745763 0.7796190159 -0.4401200779 0.8365784921 0.3262372504 0.2696937443 0.7976530509 0.5394579637 0.2716257221 0.8386180538 0.4721644067 0.2090915312 0.6355641141 -0.7431951214 -0.3845828515 0.7536667820 -0.5329938200 -0.2919788093 0.6684365318 0.6840621155 -0.2518922888 0.6666756627 0.7014940025 -0.8247865048 0.4462082425 0.3473117128 -0.1772986390 0.9573737039 0.2280368033 0.3002280349 0.5922469868 -0.7477343337 0.2806566857 0.5827392802 -0.7626576926 -0.2984469910 0.4463295716 -0.8436345815 -0.3000489763 0.4872083853 -0.8201210893 -0.1923643367 -0.5414386906 0.8184376007 -0.1957679865 -0.5312666148 0.8242758516 -0.4403204687 0.6284681966 -0.6412063714 0.0843755743 0.9896465467 0.1161054480 -0.6559070903 -0.6631175641 0.3606396887 -0.6477289054 -0.7391442350 -0.1846972251 0.6216386697 -0.6940120498 -0.3631977960 -0.4377156134 0.6553954203 -0.6155175748 -0.1216709847 0.3523852600 -0.9279120648 -0.2329674431 0.2568565765 -0.9379503556 -0.4786247367 0.7628193858 -0.4347699921 -0.1736975245 0.6567013449 0.7338749986 -0.7734265711 -0.6004206868 -0.2032396073 -0.7640799145 -0.6230861035 -0.1671693508 0.2986766357 0.2188544697 -0.9289214113 0.2974139344 0.2166316045 -0.9298471377 -0.2439385509 0.3579293009 -0.9013215847 0.3978183314 0.4542135570 -0.7971390217 0.3423522472 0.4963710116 -0.7977535695 -0.3679617208 0.7958055186 0.4809342455 -0.3649433219 0.8040847970 0.4693229284 -0.8854925998 0.3731738754 0.2768467345 -0.8869882169 0.3678067550 0.2792312556 0.0322049621 0.0956234904 -0.9948964712 0.0299050270 0.0983251009 -0.9947049130 0.0681947292 0.0531640692 -0.9962545160 0.0336715989 0.0939389898 -0.9950083867 0.0706252992 0.0502729685 -0.9962352612 0.0315012170 0.0964962959 -0.9948347291 0.0697337386 0.0513362619 -0.9962438426 -0.9735274345 0.2172852572 0.0709327241 -0.4238711721 -0.7489812160 -0.5092743539 0.4890316316 -0.6031935942 0.6300837652 0.0011447464 0.0684581282 -0.9976533337 0.1759357125 -0.2961199240 -0.9388075499 0.5084298881 -0.3526564409 -0.7855778023 0.1803341230 -0.9835925773 -0.0050245429 0.9711440210 -0.0971724302 -0.2177999295 -0.2651226046 -0.9614106864 0.0734812671 -0.2908641518 -0.5680926701 0.7698498317 0.6003631584 -0.1235763270 -0.7901221231 0.4877579163 0.4212431248 0.7646217659 -0.0679989574 -0.9155807717 -0.3963432757 -0.1218937082 0.3804000595 -0.9167539030 0.3198480610 -0.2090795794 0.9241119777 -0.6040767526 -0.0347636560 -0.7961675485 -0.2391597910 -0.6359417437 0.7337442968 -0.2315490669 -0.6370177183 0.7352506078 0.8045621689 -0.5925199287 0.0399981306 0.5654738639 -0.0073183403 0.8247337456 0.0996574160 0.7560962475 0.6468283110 -0.1534811847 0.6421888501 -0.7510239722 0.7465880145 0.1815146664 -0.6400459065 0.1414887283 -0.5278160467 -0.8374909914 -0.6001536573 -0.5560330636 -0.5750154953 -0.2655310186 0.5367708085 -0.8008560278 -0.8479738637 -0.3158352833 -0.4256623079 -0.7710790981 -0.1248552740 -0.6243782387 0.3590319494 0.2544334940 -0.8979753095 0.3518008002 0.2536800396 -0.9010453010 0.3589468737 0.2544586111 -0.8980022033 0.4646802192 -0.0593441861 0.8834877257 -0.0937003069 -0.1858349516 -0.9781030739 -0.0848804640 -0.1981151935 -0.9764966344 -0.1139121612 -0.6161850114 -0.7793202495 0.0886011757 0.1653694504 0.9822437460 0.7157439316 -0.2994527754 -0.6309030510 0.8781570920 0.0218768588 0.4778718707 0.4081686142 0.9091449342 -0.0827881087 0.9198042779 -0.1472184107 -0.3637125651 0.4277920977 0.5480253023 -0.7187921738 0.4394572891 0.5374400855 -0.7197467927 -0.0485464572 -0.6506539685 0.7578209913 -0.0481447230 -0.6506587106 0.7578425483 -0.0497872161 -0.6508241671 0.7575943088 -0.0495892989 -0.6508276882 0.7576042646 -0.0496814961 -0.6508525764 0.7575768428 0.3639470682 -0.0156314981 -0.9312884557 0.9432763319 0.2503068630 -0.2181197744 -0.4285847471 0.5268902025 0.7339630979 -0.4289757746 0.5264645646 0.7340400854 -0.4345391387 0.5250611222 0.7317694684 -0.7262287711 0.3025759753 0.6172840117 -0.0362805143 0.2405684162 -0.9699538965 0.0041111461 0.2892681419 -0.9572392807 0.0163341157 0.3096370271 -0.9507145250 0.2013682497 0.3973505519 -0.8953007131 0.1078153256 0.8494472470 -0.5165416055 -0.3693008557 -0.1432364973 -0.9182048703 -0.2699992354 0.0784235853 -0.9596614789 -0.3530754573 -0.2886919337 0.8899408345 -0.3215947753 -0.9253119260 -0.2009344176 0.2932611862 -0.5837336801 -0.7571346428 -0.0298846231 -0.6451756145 -0.7634496289 0.2668487594 0.3719963613 -0.8890503061 0.3191426366 0.1144456825 -0.9407710472 -0.3964293489 0.0135324841 -0.9179654913 -0.3971787146 0.0123247519 -0.9176585253 -0.3732226342 0.0502536645 -0.9263797464 -0.3734401632 0.0499622950 -0.9263078395 0.1842482186 -0.3894806436 0.9024175432 -0.2693749395 0.0358315186 -0.9623685595 -0.2119934667 0.0192410266 -0.9770816511 -0.0860937124 -0.1622274304 0.9829904036 0.6306316705 -0.6960434619 -0.3432596615 0.6343611353 -0.6933874427 -0.3417598636 -0.2452327784 0.8945691311 -0.3736401398 -0.4035316919 0.9128055655 0.0628344912 -0.5502992047 -0.7400335506 0.3866796210 0.1735307635 0.3615626435 -0.9160565097 0.1744383343 0.3463887980 -0.9217299323 0.3688323263 -0.7351875363 -0.5687371990 -0.4895718390 -0.5444962719 -0.6810603677 0.0874889675 0.4826743524 0.8714190439 0.0729881708 0.4577580959 0.8860757601 0.2545704561 0.7718896392 -0.5825635312 0.2177884851 0.8018530653 -0.5564169636 -0.1614301179 -0.9838708544 0.0770613966 -0.0928289458 0.9011119538 0.4235328009 -0.4452268360 -0.8639953901 -0.2351276897 0.7007699460 -0.1018101923 0.7060850993 0.7780998351 -0.0149284224 0.6279632066 -0.1273621660 -0.6337185339 0.7630070107 -0.1228497215 -0.6298751861 0.7669192890 -0.1273309165 -0.6337435798 0.7629914238 -0.1228195143 -0.6299745613 0.7668424995 -0.1228765398 -0.6300224683 0.7667940046 -0.0929754859 -0.6040542472 0.7915011216 -0.1219744287 -0.6310551839 0.7660885025 -0.0935176370 -0.6037206714 0.7916917345 -0.0933962151 -0.6036252040 0.7917788580 -0.0310398965 0.6017033053 0.7981163181 0.5127528499 0.8092057529 -0.2868284582 0.9208304817 0.2509969479 0.2984489173 -0.0789324803 0.2649784816 -0.9610182453 -0.0744987827 0.2682423220 -0.9604665471 -0.0701753089 0.2713517293 -0.9599185721 0.3275286482 0.4936447104 -0.8056301164 0.6858809874 0.7189580705 0.1125458308 -0.1523932614 -0.6449731846 0.7488563848 -0.1524413978 -0.6449511619 0.7488655547 -0.1524548605 -0.6449488186 0.7488648322 -0.1524067581 -0.6449543365 0.7488698712 -0.1524373934 -0.6449508302 0.7488666555 -0.1524573631 -0.6449485087 0.7488645896 -0.1524541121 -0.6449488832 0.7488649289 -0.1523876014 -0.6449565424 0.7488718698 -0.1524026334 -0.6449548114 0.7488703016 0.0626407060 0.755246633