<?xml version="1.0"?>
<VTKFile type="UnstructuredGrid" version="0.1" byte_order="LittleEndian">
  <UnstructuredGrid>
    <FieldData>
      <DataArray type="Float32" Name="TIME"  NumberOfTuples="1" format="ascii"> 0.4500000000 </DataArray>
      <DataArray type="Int32"   Name="STEP"  NumberOfTuples="1" format="ascii"> 45000 </DataArray>
    </FieldData>
    <Piece NumberOfPoints="4" NumberOfCells="4">
      <Points>
        <DataArray type="Float32" NumberOfComponents="3" format="ascii">
 0.1765839800 0.4649463876 0.2168207726 0.1750164476 0.4726472317 0.2154150143 0.4087507599 0.7957605653 0.2753081093 0.4042432523 0.7900036777 0.2918906386
        </DataArray>
      </Points>
      <Cells>
        <DataArray type="Int32" Name="connectivity" format="ascii">
 0 1 2 3
        </DataArray>
        <DataArray type="Int32" Name="offsets" format="ascii">
 1 2 3 4
        </DataArray>
        <DataArray type="UInt8" Name="types" format="ascii">
 1 1 1 1
        </DataArray>
      </Cells>
      <PointData Scalars="overlap">
        <DataArray type="Float32" Name="overlap" format="ascii">
 0.0003865761 0.0001943716 0.0027682572 0.0020374881
        </DataArray>
        <DataArray type="Float32" Name="contact normal" NumberOfComponents="3" format="ascii">
 -0.3420634475 0.0700576660 0.9370616422 -0.3399414427 0.0705012715 0.9378002912 -0.7137832943 -0.4750348999 -0.5146408968 -0.9448469320 -0.2701549982 -0.1851500798
        </DataArray>
        <DataArray type="Float32" Name="contact force" NumberOfComponents="3" format="ascii">
 -138.0093226557 132.7043294221 187.2243738853 -53.7127391084 73.2640030440 99.3799520982 -952.0621415663 -763.4712300978 -1202.2223096176 -996.7244998178 -505.5882105894 -778.5771110919
        </DataArray>
        <DataArray type="Float32" Name="sliding spring" NumberOfComponents="3" format="ascii">
 0.0003259399 -0.0006469709 0.0001673501 0.0000781543 -0.0003613441 0.0000554949 -0.0012972183 -0.0001418890 0.0019301517 -0.0008796897 0.0009740314 0.0030679581
        </DataArray>
      </PointData>
    </Piece>
  </UnstructuredGrid>
</VTKFile>
