<?xml version="1.0"?>
<VTKFile type="UnstructuredGrid" version="0.1" byte_order="LittleEndian">
  <UnstructuredGrid>
    <FieldData>
      <DataArray type="Float32" Name="TIME"  NumberOfTuples="1" format="ascii"> 5.2000000000 </DataArray>
      <DataArray type="Int32"   Name="STEP"  NumberOfTuples="1" format="ascii"> 520000 </DataArray>
    </FieldData>
    <Piece NumberOfPoints="399" NumberOfCells="399">
      <Points>
        <DataArray type="Float32" NumberOfComponents="3" format="ascii">
 0.4248653186 0.2068253633 0.0759429645 0.5299832317 0.1286327172 0.0400907650 0.5050733412 0.1472906705 0.1825917070 0.6403307341 0.1082662471 0.1124597289 0.5396124269 0.3646966407 0.2040007170 0.5528625376 0.3591024290 0.2072266510 0.5678908454 0.4472843480 0.1939269933 0.7522014969 0.1787390598 0.1457377645 0.7585132738 0.1855915769 0.1501548154 0.6781370802 0.4551489605 0.1694660250 0.8496088285 0.2321592346 0.1150671834 0.7816290775 0.3733977479 0.0369726863 0.7953317150 0.3703147747 0.0373492163 0.8168259468 0.3857435550 0.0431750062 0.8042875666 0.3963506253 0.2240356158 0.8177013865 0.3880443314 0.2261940959 0.8970056383 0.3686629617 0.1723159102 0.7489579086 0.3245511725 0.6726896268 0.7715939480 0.2992914989 0.6582640457 0.7860265191 0.3638993298 0.5621523094 0.8677399146 0.6052375447 0.5111381282 0.9118155361 0.5556477090 0.5587197438 0.8933346409 0.6065767945 0.4947005000 0.9262233616 0.5446450463 0.5458336259 0.9417329184 0.3093609297 0.5254673727 0.9349242135 0.3343192976 0.5344040475 0.9466583443 0.4740605740 0.4508196469 0.2426831623 0.7997984409 0.0414070327 0.2550043001 0.8173393897 0.0914574760 0.0745409264 0.9091236946 0.1097904261 0.1543236919 0.7223196081 0.0815085639 0.0388482875 0.8885768087 0.1662305817 0.0554833952 0.8047839678 0.1553462439 0.0622455404 0.7985058722 0.1588805243 0.1716658705 0.7198411885 0.1453823118 0.1846704685 0.8263778308 0.1958309994 0.5696631193 0.7614162421 0.2455274134 0.6836962783 0.7584633975 0.2617671564 0.6518275357 0.7389198894 0.1620808530 0.7064503863 0.8129148094 0.2796415840 0.6573957405 0.7424564141 0.1621261232 0.6559154647 0.7439888046 0.1560628928 0.6050549017 0.8504650645 0.2446687791 0.6094917842 0.8548461887 0.2417822547 0.5207965047 0.7623145602 0.0984627467 0.7326511495 0.8581095855 0.2193669624 0.7273901223 0.8568456737 0.2066722972 0.5647767290 0.8549311097 0.1613299687 0.5655443948 0.8555398239 0.1539492938 0.1730878098 0.4807041044 0.3236706720 0.1676976641 0.4846859635 0.4415928861 0.1372092382 0.6603892236 0.2434471988 0.0843619738 0.6890418519 0.2636712019 0.1610016373 0.6613730650 0.2414229025 0.2576847060 0.4522146348 0.3447866119 0.2908207251 0.4616811748 0.4187218906 0.2909884525 0.5655095013 0.4523287635 0.3086335128 0.4589965783 0.2813321310 0.1182086278 0.7733039464 0.4080898047 0.2713209791 0.7854265283 0.2555510082 0.4240758322 0.5343445072 0.4164819706 0.4308565679 0.5455605224 0.4205666502 0.2460006748 0.8876088307 0.3715553340 0.3711233070 0.8402719948 0.4486934681 0.3884541017 0.8571712212 0.4473815229 0.4440474599 0.9114116533 0.2749313178 0.5616928710 0.7792378269 0.4616570999 0.7554639183 0.3393616810 0.5253681405 0.7491430211 0.3251159040 0.5221870620 0.7310387376 0.1923229500 0.5211120782 0.6605265801 0.0750019268 0.2089066634 0.6490921713 0.1078240686 0.2421729569 0.6082327361 0.1071849725 0.3161805652 0.5368084999 0.0942200556 0.3297717349 0.6497671487 0.8867020224 0.4452709290 0.6558285667 0.9007449462 0.3525090071 0.6572079786 0.9097055811 0.3464139132 0.7437354564 0.9446356211 0.5283422432 0.6975294473 0.9102990018 0.3310050735 0.7118970180 0.2412325075 0.2823340807 0.6923343888 0.1618252369 0.4376720095 0.7639626310 0.3793132715 0.3440298709 0.7707360972 0.3872255460 0.3523737831 0.5690856456 0.3189433358 0.3113892283 0.5335518222 0.2357773629 0.4478717024 0.4819230758 0.2672511622 0.3471243110 0.4709351347 0.3273643461 0.5039590142 0.4582440710 0.3355682730 0.5055506986 0.3861282332 0.4139790765 0.4441330598 0.5795577123 0.5972596508 0.5628796605 0.1272839199 0.2954924001 0.0794080931 0.1210211324 0.2920258705 0.0845417437 0.1781401530 0.3772362039 0.0528338375 0.1491837877 0.4388045746 0.0568121293 0.0950511571 0.4146556154 0.1045547174 0.2077568221 0.4386274515 0.0527657121 0.1964207558 0.4344285630 0.0567131071 0.2718642611 0.5419338395 0.0599525893 0.1116349143 0.4730197389 0.1348033726 0.1123437134 0.4827925662 0.1420337267 0.1047360959 0.4920113470 0.1450388168 0.0995439590 0.5073283155 0.1534458014 0.1196633796 0.6091644914 0.0768632857 0.1243073343 0.6141215813 0.0785440151 0.0731065405 0.6660886879 0.2039458605 0.0764847435 0.6738818850 0.1942223377 0.1368993707 0.3952855484 0.2410305492 0.2422135561 0.3041291273 0.2229845993 0.2365969251 0.2958151676 0.2228487994 0.2487071873 0.3044899750 0.2244121518 0.2293358654 0.2902093331 0.2219684242 0.2433835195 0.2948294442 0.2245376227 0.2197448187 0.2869283851 0.2202323930 0.2548635661 0.3066656061 0.2255148966 0.2368437468 0.2880813095 0.2239873081 0.2496216634 0.2953275246 0.2258878855 0.2609603042 0.3107896934 0.2263362052 0.2673069818 0.3172671810 0.2268948063 0.2743128998 0.3269066848 0.2271857096 0.0603283241 0.3238590340 0.2405525958 0.2818535520 0.3248941847 0.2291696188 0.2734197330 0.3270487964 0.3139747504 0.2819441136 0.3344277149 0.3145358132 0.0744064433 0.2508623931 0.2704874307 0.0724369891 0.1488439505 0.2300770792 0.1130170504 0.0685981341 0.2994127538 0.1289112506 0.0610857806 0.3107433385 0.2422537990 0.1318700766 0.3407274334 0.2508583261 0.1370574487 0.3419973685 0.2667441807 0.1556162282 0.3433603140 0.2741733064 0.1652456541 0.3438922087 0.2824444342 0.1696901557 0.3451598892 0.8679174814 0.1866464530 0.4388065395 0.8336801004 0.1057841819 0.4125786448 0.7587818721 0.1533915899 0.5977292462 0.7548273051 0.1422548047 0.5935161690 0.7470126348 0.1331154627 0.5912829766 0.2973193267 0.2801238542 0.5031616314 0.2898209527 0.2700270048 0.4140875838 0.2535001262 0.3450425775 0.3698635197 0.3102818422 0.3803418652 0.4286201834 0.6312888075 0.7388036237 0.5144380658 0.6934334327 0.6467632395 0.3835486162 0.7179965102 0.8411239331 0.5228716263 0.7601123992 0.7119199472 0.4431576466 0.7150681237 0.7763956046 0.3773376161 0.7224920232 0.7765644678 0.3764741492 0.7217490327 0.7830364230 0.3798923641 0.5481883594 0.5178812218 0.2034166183 0.6016772986 0.5231819716 0.2544421767 0.6024651865 0.5427590427 0.2596856886 0.6200440179 0.5473505987 0.0836205017 0.6262682615 0.5623856512 0.0836988720 0.6399072049 0.5592327515 0.0832589071 0.7413569710 0.6640249614 0.2510472764 0.8187178414 0.4748239237 0.2427189821 0.8265620645 0.4850383667 0.2453614974 0.7524096712 0.6663460810 0.2524261817 0.8342697275 0.4949642537 0.2478054405 0.7588459396 0.7526341232 0.1137499369 0.7644309354 0.6690106000 0.2538323475 0.7782261986 0.6723034137 0.2552958127 0.8026220362 0.7665643111 0.1615340117 0.8794314599 0.6238431288 0.0942663805 0.9217433697 0.5592536470 0.1912945319 0.8981107835 0.6354673074 0.0942528312 0.9265944284 0.6781196670 0.2684890867 0.9125154482 0.7262493264 0.2334569899 0.9396909400 0.6711486224 0.2630040811 0.3658526143 0.5765587928 0.0833475543 0.4803351034 0.7324424068 0.0279602340 0.4430330170 0.6659638493 0.0961071696 0.4495917778 0.6639639469 0.0952667446 0.4523357920 0.6598791835 0.0965932429 0.3894149227 0.1711525983 0.4216738284 0.3343304005 0.0835969036 0.4717569428 0.1711627359 0.1840700821 0.3885514838 0.2163983824 0.1306971859 0.4587595071 0.1403168953 0.0872425417 0.4244188211 0.9285704105 0.4500576026 0.5810542745 0.2542664581 0.1549636187 0.0768234937 0.2905346973 0.1241726688 0.1289600551 0.3212505563 0.0796913918 0.1134323152 0.3626134704 0.1664948943 0.0989906948 0.3618115056 0.1720328474 0.1001071273 0.3650571759 0.1699175095 0.1024748943 0.3680817932 0.1736261565 0.1065972811 0.3291199956 0.2036821071 0.1572352926 0.3370100991 0.2091292963 0.1616357171 0.0617467690 0.1503419919 0.5057998598 0.1851545364 0.1663334545 0.5386189876 0.1499010807 0.2658902411 0.5712993345 0.1483449676 0.2522239682 0.4787907348 0.0408594842 0.9382737039 0.1632798862 0.1579122168 0.9508840615 0.1726203087 0.1685813003 0.9468864522 0.1683301812 0.4623076324 0.4848411659 0.1661080601 0.4577480540 0.4752232486 0.1662387339 0.5258204259 0.3954502505 0.2669791041 0.8807305913 0.5610005600 0.0484159719 0.8724849010 0.5657490480 0.0455653174 0.8788722442 0.5639571206 0.0436099573 0.9528859216 0.5564838425 0.0824624439 0.0848626231 0.9509148190 0.2972595126 0.0909318257 0.9527346292 0.2984105338 0.1709234082 0.9291514418 0.3642659672 0.7712013181 0.0774325523 0.2849990932 0.7320445180 0.0975391316 0.3049635300 0.7245536285 0.0995461563 0.3031239967 0.8351613292 0.1252679244 0.3223784979 0.8416794826 0.1387116164 0.3278999218 0.7707172329 0.1908860219 0.2038468924 0.7747344027 0.1947190291 0.2066773975 0.3426284994 0.1902178298 0.5344582940 0.3550237578 0.1906347168 0.5362020130 0.4140005293 0.2829446270 0.5664143827 0.9549016552 0.6061794758 0.3610205922 0.8663835076 0.6117986973 0.4001128469 0.8999175238 0.4790676841 0.3659223253 0.9022705020 0.4738060956 0.3628363418 0.8960227743 0.4718838534 0.3635569193 0.9027217790 0.3807538646 0.2926233580 0.8058036922 0.0773924992 0.5900189219 0.3432513818 0.9113998161 0.0686959415 0.3482567188 0.9041870303 0.0728549393 0.2973775581 0.8399043568 0.0897858230 0.2988439813 0.8343473773 0.0890977344 0.8006526484 0.6605804600 0.3595347354 0.6844028185 0.6155008879 0.3399599569 0.6751678771 0.6201204626 0.3384223881 0.1505755411 0.9040897732 0.4534406038 0.1568609232 0.9069187415 0.4543829689 0.1183443332 0.9135208191 0.2299883655 0.1206156076 0.9131855117 0.2376249513 0.2538574002 0.3186007013 0.1147666369 0.2556201847 0.3240390541 0.1154068329 0.2607362217 0.3190392369 0.1151262259 0.2621688431 0.3245774247 0.1156874877 0.2673284078 0.3190366401 0.1154434364 0.2631778057 0.3301135939 0.1161662935 0.2685363550 0.3247192304 0.1158620147 0.3468120853 0.2670682642 0.0577854691 0.2798045831 0.4118686799 0.0597694431 0.1971449330 0.4195477450
[...]
      <PointData Scalars="overlap">
        <DataArray type="Float32" Name="overlap" format="ascii">
 0.0002254194 0.0000175821 0.0002058251 0.0000271809 0.0000865529 0.0000332295 0.0000068176 0.0000516876 0.0002478885 0.0002507702 0.0001091191 0.0000485807 0.0000728671 0.0004922925 0.0000269842 0.0002311678 0.0000930759 0.0000060832 0.0000060871 0.0001283015 0.0000225140 0.0000490497 0.0000314138 0.0000305328 0.0000236322 0.0000097479 0.0001206755 0.0000833834 0.0001926508 0.0001201483 0.0000299791 0.0000288225 0.0000077288 0.0000869533 0.0002829876 0.0000289428 0.0001992398 0.0000834818 0.0000472871 0.0000985272 0.0001043015 0.0001687775 0.0000242500 0.0000128023 0.0001829851 0.0000523947 0.0000014060 0.0000530392 0.0001661948 0.0000601342 0.0000790224 0.0002214225 0.0000634685 0.0000340856 0.0000158394 0.0000084807 0.0000554044 0.0002888776 0.0001530306 0.0000509265 0.0001170699 0.0000166127 0.0000949551 0.0000952895 0.0000262347 0.0003201441 0.0000193580 0.0000905900 0.0000909868 0.0000192340 0.0000291786 0.0000606520 0.0000071975 0.0000864615 0.0000181920 0.0000016403 0.0000080658 0.0000088854 0.0000386301 0.0001857877 0.0000087607 0.0000307436 0.0002617633 0.0001146880 0.0000376113 0.0001252177 0.0000100305 0.0000137088 0.0000041092 0.0000157499 0.0000164913 0.0000395976 0.0000070254 0.0000395386 0.0000273634 0.0001011127 0.0001228608 0.0000460797 0.0000056264 0.0000080891 0.0000275610 0.0000244815 0.0000820204 0.0000443110 0.0000529742 0.0000486170 0.0000603106 0.0000762343 0.0000622110 0.0000974259 0.0000385271 0.0000569172 0.0000138538 0.0001103368 0.0000158148 0.0000254163 0.0001250661 0.0001383178 0.0001233047 0.0000799978 0.0001381831 0.0000156745 0.0000302343 0.0000371820 0.0000324517 0.0000592043 0.0000283275 0.0000085644 0.0000406169 0.0001086531 0.0000464299 0.0000187100 0.0000024171 0.0000395755 0.0000015916 0.0000123685 0.0000048997 0.0000334656 0.0000390515 0.0000604812 0.0000185332 0.0000167659 0.0000082340 0.0000068176 0.0000118930 0.0000224339 0.0000204468 0.0000127886 0.0000104083 0.0000259263 0.0000088824 0.0001699437 0.0000140241 0.0000454365 0.0000110951 0.0000460846 0.0001709598 0.0000240950 0.0001046269 0.0002024172 0.0000361831 0.0000389088 0.0001535345 0.0000028785 0.0000398836 0.0002875965 0.0000076088 0.0000179607 0.0000144486 0.0000430867 0.0000044894 0.0000129704 0.0000079475 0.0000747536 0.0000377394 0.0000594300 0.0000611838 0.0000359048 0.0000601498 0.0000172928 0.0000352252 0.0000002055 0.0000570334 0.0000125398 0.0000175904 0.0000518834 0.0000191478 0.0000528964 0.0000303258 0.0000299914 0.0000204888 0.0000077702 0.0000284871 0.0000113794 0.0000228868 0.0000145625 0.0000044347 0.0000259660 0.0000158025 0.0000056976 0.0000675081 0.0000369126 0.0000020565 0.0000128054 0.0000077486 0.0000004380 0.0000400498 0.0000106568 0.0000493820 0.0000639382 0.0000373945 0.0002481722 0.0000716211 0.0000078702 0.0000103942 0.0000073318 0.0000071208 0.0000117701 0.0000365395 0.0000337638 0.0000538087 0.0000648488 0.0000026858 0.0000081424 0.0000882147 0.0000310267 0.0000607576 0.0000854503 0.0000025907 0.0000074678 0.0000561105 0.0000902479 0.0000005513 0.0000288693 0.0000796255 0.0001169222 0.0003506540 0.0003213677 0.0000395905 0.0000253627 0.0001375266 0.0001622651 0.0000228933 0.0000387864 0.0000069736 0.0000152446 0.0000603234 0.0000176256 0.0000221192 0.0000122443 0.0000312294 0.0000745083 0.0000535310 0.0000058071 0.0000331828 0.0000231288 0.0000207659 0.0000334226 0.0000189327 0.0000231509 0.0000276474 0.0000619817 0.0000031141 0.0000056536 0.0000215641 0.0000015055 0.0000080878 0.0000689905 0.0002010403 0.0001003487 0.0000704889 0.0000618205 0.0000254603 0.0000531038 0.0000845054 0.0000197748 0.0000509665 0.0000228165 0.0001329235 0.0000052763 0.0000218536 0.0000398955 0.0000060636 0.0000133030 0.0000072784 0.0000121432 0.0000692922 0.0000460935 0.0000085578 0.0000061941 0.0000203082 0.0000510117 0.0000424813 0.0000045935 0.0000223276 0.0000264366 0.0000096347 0.0000018750 0.0000133379 0.0000581707 0.0001162930 0.0000070154 0.0000208042 0.0000300698 0.0000081958 0.0000234170 0.0000218742 0.0000728213 0.0000745589 0.0000794611 0.0000091315 0.0000792519 0.0000033996 0.0000339725 0.0000164522 0.0000033821 0.0000091246 0.0000222757 0.0000323751 0.0000314739 0.0000290327 0.0000209628 0.0000060510 0.0000219952 0.0000136797 0.0000218839 0.0000040497 0.0000588615 0.0000081110 0.0000053794 0.0000114894 0.0000607545 0.0000874986 0.0000141717 0.0000075310 0.0000050992 0.0000504249 0.0000601938 0.0000344350 0.0000376101 0.0000593909 0.0000512500 0.0000146323 0.0000060632 0.0000103998 0.0000044798 0.0000064804 0.0000085900 0.0000098078 0.0000055285 0.0000459263 0.0000166851 0.0000076847 0.0000326562 0.0000233944 0.0000007673 0.0000054136 0.0000594921 0.0000461205 0.0000197934 0.0000226685 0.0000419100 0.0000146753 0.0000079626 0.0000069572 0.0000335451 0.0000269927 0.0000106052 0.0000221967 0.0000403828 0.0000195054 0.0000138238 0.0000139760 0.0000066178 0.0000152021 0.0000080472 0.0000100740 0.0000156446 0.0000150573 0.0000046062 0.0000049392 0.0000517264 0.0000115925 0.0000606419 0.0000295723 0.0000317022 0.0000091599 0.0000186416 0.0000045458 0.0000027629 0.0000039332 0.0000650666 0.0000060981 0.0000313498 0.0000108784 0.0000235942 0.0000131728 0.0000245387 0.0001356780
        </DataArray>
        <DataArray type="Float32" Name="contact normal" NumberOfComponents="3" format="ascii">
 0.9747549794 -0.1893166273 -0.1183720605 0.1555789959 0.9312611887 0.3294658927 -0.0006370961 0.6164456125 -0.7873972320 -0.2103083625 0.7157932171 -0.6658907290 0.1103596901 -0.0480267122 -0.9927306652 0.2338375371 -0.1107084973 -0.9659521908 0.5992090177 -0.7720039631 -0.2120340399 -0.3785356780 0.6351392778 -0.6732821387 -0.3288782939 0.6782702646 -0.6571061679 -0.1641725105 -0.9501198562 -0.2651785165 -0.8558114430 0.4668473252 0.2228011424 -0.1400023391 -0.4491045540 0.8824423180 -0.1479982599 -0.4748797506 0.8675169955 -0.1169570387 -0.3830521879 0.9162925692 -0.0083251029 0.0626827735 -0.9979987788 0.0267993373 -0.0943948836 -0.9951740559 -0.8319760018 -0.0603932409 0.5515148129 -0.4684021813 0.3948265162 -0.7903868791 -0.3784747544 -0.4904578192 -0.7849891642 0.4266661784 -0.1496793235 0.8919372580 0.4063624849 -0.1798437844 0.8958380122 -0.6620713864 -0.1481332527 -0.7346550339 0.5876592559 -0.7239400715 0.3613410742 -0.6340855408 -0.2069759704 -0.7450479680 -0.0676123486 -0.3232723068 -0.9438874859 -0.7624903937 0.1937212612 -0.6173171571 0.3124875588 -0.0294227168 0.9494660759 -0.7342354604 -0.5295600291 0.4248110924 -0.7988525422 -0.6010951326 0.0227872190 -0.0013704849 -0.9554464030 0.2951614689 0.3770204933 0.7929114408 0.4786930067 0.3335719664 -0.6196492034 -0.7104678796 0.7209796899 0.5217120147 -0.4560754986 0.7537173849 0.4852901104 -0.4431744718 0.2852104083 0.6836270853 -0.6717953789 -0.4732845692 -0.4351847042 -0.7659086040 0.2186560426 -0.1884275139 -0.9574364768 -0.6235805695 0.7261393969 -0.2896011907 -0.5201700761 0.6631038362 0.5382530951 -0.1223059022 -0.0632341290 -0.9904760023 -0.3277454094 0.7301530219 0.5995494235 -0.7229385545 0.6861785200 0.0807396135 0.4062245053 -0.7683074763 -0.4946567224 0.4403002926 -0.7260637509 -0.5281733446 0.1714117628 0.2531722958 0.9521143819 -0.4363227922 -0.6609536962 0.6105428997 -0.9456345836 -0.3248606526 -0.0155174315 0.6139382657 -0.7892934559 0.0097798965 0.5989297113 -0.8008014315 0.0005179722 0.5472194218 0.8316365680 0.0945067365 0.4998130094 0.7781956469 -0.3802610825 0.0644273910 -0.3623465690 0.9298140003 0.7572565730 -0.0105245414 0.6530327072 0.1054410408 0.2946036940 0.9497846337 -0.1808986535 0.8143222862 -0.5515023947 -0.1033732797 0.6607670582 -0.7434385380 -0.0957037144 0.2005431349 -0.9749991026 -0.2508210251 0.5934706975 0.7647753556 0.4793040381 -0.4879277402 -0.7295163874 0.2611687341 -0.8734889630 0.4108624147 -0.4050222208 0.2950857518 -0.8653793386 -0.5610636301 0.6174395239 -0.5513402193 0.6796896799 -0.6364781009 -0.3645786144 0.1152685683 -0.2602656955 -0.9586317984 0.2785750156 -0.2555742706 -0.9257849388 -0.1151279227 -0.6947407647 0.7099865008 -0.1319871666 -0.1364138475 -0.9818200701 0.1889899132 -0.3259874546 0.9262909868 0.1771355848 -0.3355319716 0.9252249892 -0.3539116790 0.6917209795 -0.6294986974 -0.5815552955 -0.3308905290 0.7431721846 -0.6850138595 -0.6446774074 0.3393332473 -0.3519574369 0.0410004915 -0.9351175981 0.2481333259 0.1400628542 -0.9585469469 0.6234739878 0.3239788838 -0.7115601657 0.9444705763 -0.0566730501 0.3236718954 0.9482898075 0.0855579988 0.3056571115 -0.4734692857 0.6020903589 -0.6428950421 -0.5584166097 0.4656550743 0.6865393228 -0.4312469492 0.6832492318 0.5892338721 0.1343174757 0.8425392953 -0.5216189716 -0.6365648645 -0.7535007171 0.1643832188 0.0926930770 -0.3335349624 0.9381697194 0.0489954251 -0.2190320540 0.9744867406 0.3163051166 0.5396065891 -0.7802408617 0.7737787569 0.4542853463 0.4414649018 0.3336603298 0.5760541000 -0.7462120732 0.2731828281 0.6214734449 -0.7342628274 0.8864811088 0.4479900826 -0.1160005587 -0.3028782898 -0.8435950672 -0.4434096347 -0.2974543880 0.9482577269 0.1110322944 -0.3437144714 0.8246729421 0.4491936116 -0.8803495645 -0.1147571575 -0.4602341133 -0.2751902682 -0.8528880795 -0.4436803355 -0.0722200777 -0.8079354768 -0.5848286293 -0.2014308797 0.9574075703 0.2068727748 -0.5934958636 0.7299751368 0.3389674904 -0.3922063617 -0.5327747756 0.7498834632 0.3396697158 0.5385652880 -0.7710848946 0.3862963035 0.5406383696 -0.7473187534 0.3396549457 0.5385644064 -0.7710920166 0.3396509702 0.5385641690 -0.7710939336 0.1126262590 -0.4601044699 0.8806924563 0.1108333109 -0.4528079945 0.8846925440 -0.0838020896 -0.9413535648 -0.3268496226 0.7066997000 -0.6148233110 -0.3500968870 0.4599526819 -0.3548447364 -0.8139586866 -0.2235085455 0.1352049557 0.9652790011 -0.2231815465 0.1347994029 0.9654113726 -0.2230420028 0.1346267344 0.9654677143 -0.2232285537 0.1348576948 0.9653923632 -0.2225772391 0.1340500328 0.9656551980 -0.2236692369 0.1354042580 0.9652138413 -0.2227702464 0.1342896747 0.9655773923 -0.2224672680 0.1339136756 0.9656994575 -0.1802097006 0.0818530633 0.9802165780 -0.2226757937 0.1341835719 0.9656139290 -0.2226605491 0.1344167214 0.9655850169 -0.2230738507 0.1349960952 0.9654087794 0.1669265577 -0.3145199167 -0.9344585311 -0.2215197248 0.1354758895 0.9656993812 0.2534599976 -0.2169842770 -0.9426960555 0.2505251546 -0.2101629951 -0.9450231015 0.4823443108 -0.3851714231 -0.7867572311 0.7374708577 0.4353343596 0.5163532990 0.4636694909 0.3371321938 -0.8193610237 0.8230608141 -0.5670133240 -0.0326617013 0.2197714584 -0.1326053651 -0.9664969339 0.2253263881 -0.1300560476 -0.9655637956 0.2248730855 -0.1264227214 -0.9661518467 0.2037511045 -0.0979217132 -0.9741133535 0.2245778733 -0.1254500525 -0.9663472787 0.1756594419 -0.7374324911 0.6521787190 0.1958892143 0.1959951651 0.9608398987 -0.0155836047 0.4234298985 -0.9057948290 -0.0707389579 0.3607678635 -0.9299691116 -0.1004599456 0.3256048249 -0.9401538690 -0.0743177638 0.1549471857 -0.9851234641 -0.3376705178 0.8585544547 0.3858275129 0.1560691494 -0.5231877776 0.8378048520 -0.3066375954 -0.9367084589 -0.1689693705 0.9259119649 0.1042797454 -0.3630602815 0.5340538234 0.5979775718 0.5976699234 -0.6750314131 -0.6277373883 -0.3876575328 -0.9195306887 0.3290495256 -0.2149179432 0.0689833588 -0.6885755315 0.7218760514 0.0714481764 -0.6715846967 0.7374748492 0.0633566651 -0.3691974731 0.9271888474 0.4348751740 0.8794793685 -0.1933898225 -0.3197022282 -0.5168076566 -0.7941664381 0.2726936743 0.5234774227 -0.8072233569 -0.0187460944 0.0079264153 0.9997928565 -0.0187559988 0.0079566824 0.9997924303 0.0753939337 -0.0381798821 0.9964226269 0.2195171544 -0.5921851298 -0.7753250873 -0.1204668317 0.3287113171 -0.9367158654 -0.1204800158 0.3287221832 -0.9367103565 0.2194886049 -0.5919971786 -0.7754766875 -0.1204916845 0.3287318001 -0.9367054807 0.1357714461 -0.0261317392 0.9903955001 0.2192782399 -0.5917310965 -0.7757392364 0.2181279076 -0.5917921480 -0.7760169261 -0.3180882546 -0.8153377013 0.4837812472 -0.2059563645 0.1752077916 0.9627482566 -0.8647641277 0.4792077984 -0.1501428967 -0.0545651325 0.3320575413 0.9416795822 -0.6879635577 0.4288470492 -0.5854881311 -0.0387474721 -0.7615559389 -0.6469398622 0.1346809514 -0.2781173630 -0.9510582389 0.6640589223 0.3246320909 -0.6735278415 -0.2386563540 -0.2963277514 0.9247880884 -0.1923004639 -0.3520434391 -0.9160163473 -0.1771615102 -0.3510693606 -0.9194368403 -0.1801651379 -0.3565773691 -0.9167295692 -0.8774162069 0.4309656085 0.2107354839 -0.5001295441 0.4190735163 -0.7577914140 0.5889327044 -0.5446862318 -0.5970554233 0.2174336838 -0.1597092139 -0.9629203291 0.9732606821 0.2296994719 0.0013406277 -0.6193095629 0.5275564833 -0.5814979125 0.9097920374 -0.4077831157 0.0774040007 0.6530796964 0.0527715012 -0.7554482635 0.1091256132 0.9771360461 0.1824739649 -0.6847318129 -0.2364520387 0.6893712916 -0.6894315216 -0.2314217113 0.6863877684 -0.6822153706 -0.2397775865 0.6907162204 -0.6643668549 -0.2351655007 0.7094461709 0.4877489714 -0.4803087305 -0.7289749408 0.7528382076 -0.6492577084 -0.1081621988 0.0332304307 0.4261984933 0.9040191274 -0.6546725141 0.4063647928 0.6373943478 -0.0726133452 -0.4846417557 -0.8716935647 -0.5033497962 -0.6987151461 0.5083661350 0.3390179905 0.2884313139 -0.8954742762 -0.2373881988 0.0128335704 -0.9713300894 -0.2615763288 -0.0587898433 -0.9633906677 0.7522888054 0.2694473665 0.6012151610 0.1439957987 -0.6094750639 0.7796187251 -0.4401195247 0.8365785531 0.3262378404 0.2696937805 0.7976533743 0.5394574675 0.2716257312 0.8386183234 0.4721639225 0.2090915982 0.6355647765 -0.7431945360 -0.3845836207 0.7536664475 -0.5329937379 -0.2919792006 0.6684363606 0.6840621158 -0.2518927528 0.6666754780 0.7014940115 -0.8247869511 0.4462072848 0.3473118833 -0.1772987574 0.9573735500 0.2280373572 0.3002280666 0.5922475136 -0.7477339036 0.2806567163 0.5827398052 -0.7626572802 -0.2984476961 0.4463292177 -0.8436345193 -0.3000496769 0.4872080366 -0.8201210402 -0.1923639350 -0.5414387723 0.8184376411 -0.1957675676 -0.5312667250 0.8242758800 -0.4403192440 0.6284683373 -0.6412070745 0.0843755056 0.9896465377 0.1161055745 -0.6559074501 -0.6631173688 0.3606393936 -0.6477301997 -0.7391433336 -0.1846962935 0.6216383768 -0.6940124327 -0.3631975656 -0.4377165682 0.6553949331 -0.6155174145 -0.1216718762 0.3523849946 -0.9279120487 -0.2329682562 0.2568562120 -0.9379502534 -0.4786249995 0.7628194438 -0.4347696011 -0.1736961044 0.6567010529 0.7338755960 -0.7734266065 -0.6004207196 -0.2032393755 -0.7640799630 -0.6230861099 -0.1671691054 0.2986764497 0.2188545538 -0.9289214513 0.2974137485 0.2166316875 -0.9298471779 -0.2439388448 0.3579287859 -0.9013217096 0.3978192694 0.4542127751 -0.7971389990 0.3423532143 0.4963702687 -0.7977536167 -0.3679617106 0.7958058113 0.4809337690 -0.3649433209 0.8040850753 0.4693224522 -0.8854925851 0.3731738289 0.2768468443 -0.8869881985 0.3678067201 0.2792313600 0.0322051382 0.0956230835 -0.9948965047 0.0299052038 0.0983246943 -0.9947049478 0.0681948969 0.0531636544 -0.9962545267 0.0336717756 0.0939385815 -0.9950084193 0.0706254661 0.0502725534 -0.9962352704 0.0315013941 0.0964958882 -0.9948347630 0.0697339057 0.0513358471 -0.9962438523 -0.9735273960 0.2172855056 0.0709324917 -0.4238713422 -0.7489810346 -0.5092744791 0.4890318267 -0.6031937500 0.6300834647 0.0011443667 0.0684581799 -0.9976533306 0.1759355833 -0.2961199396 -0.9388075692 0.5084295012 -0.3526565589 -0.7855779998 0.1803339891 -0.9835926015 -0.0050245957 0.9711442871 -0.0971722561 -0.2177988205 -0.2651230198 -0.9614105503 0.0734815499 -0.2908648287 -0.5680925479 0.7698496661 0.6003627907 -0.1235768924 -0.7901223141 0.4877579728 0.4212431234 0.7646217307 -0.0679985924 -0.9155809262 -0.3963429815 -0.1218914314 0.3804006335 -0.9167539675 0.3198481108 -0.2090795386 0.9241119697 -0.6040770302 -0.0347633918 -0.7961673493 -0.2391594556 -0.6359417600 0.7337443919 -0.2315487427 -0.6370177305 0.7352506993 0.8045620682 -0.5925200771 0.0399979589 0.5654748515 -0.0073176769 0.8247330743 0.0996571591 0.7560963689 0.6468282087 -0.1534818099 0.6421887286 -0.7510239483 0.7465876276 0.1815147073 -0.6400463462 0.1414886762 -0.5278160923 -0.8374909714 -0.6001534123 -0.5560334620 -0.5750153657 -0.2655315365 0.5367707215 -0.8008559144 -0.8479739890 -0.3158352485 -0.4256620840 -0.7710791389 -0.1248553088 -0.6243781815 0.3590317522 0.2544335999 -0.8979753583 0.3518006064 0.2536801438 -0.9010453474 0.3589466768 0.2544587170 -0.8980022520 0.4646801200 -0.0593447036 0.8834877431 -0.0936999427 -0.1858352092 -0.9781030599 -0.0848801095 -0.1981154578 -0.9764966116 -0.1139115993 -0.6161849286 -0.7793203971 0.0886012893 0.1653683432 0.9822439222 0.7157437531 -0.2994513451 -0.6309039324 0.8781579491 0.0218766475 0.4778703053 0.4081700567 0.9091442159 -0.0827888845 0.9198034304 -0.1472187046 -0.3637145894 0.4277915216 0.5480259808 -0.7187919994 0.4394567292 0.5374407699 -0.7197466235 -0.0485461178 -0.6506539246 0.7578210506 -0.0481443839 -0.6506586667 0.7578426075 -0.0497868740 -0.6508241236 0.7575943686 -0.0495889567 -0.6508276446 0.7576043244 -0.0496811531 -0.6508525328 0.7575769027 0.3639469785 -0.0156320935 -0.9312884808 0.9432763148 0.2503070449 -0.2181196398 -0.4285861511 0.5268884957 0.7339635033 -0.4289771788 0.5264628572 0.7340404894 -0.4345405397 0.5250594188 0.7317698587 -0.7262292723 0.3025746749 0.6172840596 -0.0362805230 0.2405686459 -0.9699538392 0.0041111331 0.2892683661 -0.9572392130 0.0163341544 0.3096373175 -0.9507144298 0.2013686059 0.3973512171 -0.8953003378 0.1078148758 0.8494475654 -0.5165411757 -0.3693009180 -0.1432362388 -0.9182048856 -0.2699992873 0.0784239131 -0.9596614375 -0.3530754753 -0.2886913808 0.8899410067 -0.3215948429 -0.9253118888 -0.2009344804 0.2932612458 -0.5837340100 -0.7571343654 -0.0298845183 -0.6451759134 -0.7634493803 0.2668491001 0.3719957073 -0.8890504775 0.3191423347 0.1144441062 -0.9407713414 -0.3964304568 0.0135319213 -0.9179650212 -0.3971798282 0.0123241775 -0.9176580511 -0.3732237792 0.0502531129 -0.9263793150 -0.3734413125 0.0499617360 -0.9263074063 0.1842487253 -0.3894807604 0.9024173893 -0.2693771365 0.0358315212 -0.9623679444 -0.2119956761 0.0192410019 -0.9770811722 -0.0860934384 -0.1622270388 0.9829904922 0.6306327788 -0.6960407963 -0.3432630306 0.6343621919 -0.6933848099 -0.3417632439 -0.2452330180 0.8945692559 -0.3736396836 -0.4035322248 0.9128053379 0.0628343750 -0.5502991009 -0.7400336964 0.3866794897 0.1735310221 0.3615624836 -0.9160565238 0.1744385929 0.3463886334 -0.9217299453 0.3688315831 -0.7351873290 -0.5687379489 -0.4895721829 -0.5444959481 -0.6810603793 0.0874891938 0.4826742346 0.8714190865 0.0729885517 0.4577576997 0.8860759334 0.2545712620 0.7718897270 -0.5825630625 0.2177893367 0.8018531714 -0.5564164773 -0.1614285752 -0.9838708569 0.0770645970 -0.0928263436 0.9011097937 0.4235379672 -0.4452269922 -0.8639953004 -0.2351277233 0.7007701665 -0.1018103422 0.7060848589 0.7780998374 -0.0149287792 0.6279631952 -0.1273608061 -0.6337183788 0.7630073666 -0.1228483625 -0.6298750291 0.7669196357 -0.1273295558 -0.6337434241 0.7629917802 -0.1228181544 -0.6299744036 0.7668428468 -0.1228751792 -0.6300223100 0.7667943526 -0.0929741180 -0.6040540639 0.7915014222 -0.1219730659 -0.6310550253 0.7660888501 -0.0935162684 -0.6037204881 0.7916920360 -0.0933948461 -0.6036250202 0.7917791597 -0.0310392875 0.6017025896 0.7981168814 0.5127514356 0.8092067351 -0.2868282154 0.9208304463 0.2509969845 0.2984489956 -0.0789295412 0.2649774562 -0.9610187694 -0.0744958669 0.2682413290 -0.9604670506 -0.0701724179 0.2713507660 -0.9599190557 0.3275287457 0.4936439989 -0.8056305128 0.6858802324 0.7189587955 0.1125458006 -0.1523932935 -0.6449733122 0.7488562684 -0.1524414298 -0.6449512895 0.7488654382 -0.1524548926 -0.6449489462 0.7488647158 -0.1524067903 -0.6449544641 0.7488697547 -0.1524374254 -0.6449509578 0.7488665390 -0.1524573953 -0.6449486363 0.7488644731 -0.1524541443 -0.6449490108 0.7488648125 -0.1523876334 -0.6449566700 0.7488717534 -0.1524026655 -0.6449549390 0.7488701851 0.0626412717 0.755246577