<?xml version="1.0"?>
<VTKFile type="UnstructuredGrid" version="0.1" byte_order="LittleEndian">
  <UnstructuredGrid>
    <FieldData>
      <DataArray type="Float32" Name="TIME"  NumberOfTuples="1" format="ascii"> 1.6500000000 </DataArray>
      <DataArray type="Int32"   Name="STEP"  NumberOfTuples="1" format="ascii"> 165000 </DataArray>
    </FieldData>
    <Piece NumberOfPoints="363" NumberOfCells="363">
      <Points>
        <DataArray type="Float32" NumberOfComponents="3" format="ascii">
 0.4248751636 0.2068098110 0.0759251358 0.5299956567 0.1286184271 0.0400956987 0.5050738195 0.1472970281 0.1825875560 0.6403364673 0.1082652936 0.1124719354 0.5396060969 0.3647053628 0.2039679710 0.5528569898 0.3591115716 0.2071910341 0.7522050907 0.1787411580 0.1457517005 0.7585164883 0.1855939104 0.1501685820 0.6781306468 0.4551495798 0.1694253313 0.8496112168 0.2321609579 0.1150781867 0.7816350281 0.3733828730 0.0369577850 0.7953382766 0.3703020581 0.0373354665 0.8168308081 0.3857292086 0.0431642361 0.8042790586 0.3963694834 0.2240015564 0.8176934435 0.3880607090 0.2261509367 0.8970000073 0.3686743325 0.1723088807 0.7855032909 0.3656401594 0.5628456326 0.8947538033 0.6072072134 0.4945008650 0.9440745152 0.5183245645 0.5293517382 0.9465212350 0.5063379996 0.5266254258 0.9635948043 0.4906226230 0.4436029805 0.9466579594 0.4741203859 0.4506386536 0.2426833416 0.7997811442 0.0414106528 0.2550043842 0.8173238913 0.0914602619 0.0745470263 0.9091217166 0.1097867620 0.1543200804 0.7223125873 0.0815195592 0.0388513915 0.8885830339 0.1662326359 0.0554861830 0.8047870566 0.1553482942 0.0622479015 0.7985085495 0.1588831753 0.1716609549 0.7198347544 0.1453919434 0.1846681703 0.8263707410 0.1958273432 0.5696326252 0.7613646827 0.2455242309 0.6836662456 0.7584041564 0.2617885735 0.6518058351 0.7389005649 0.1620929424 0.7064129943 0.8128554966 0.2796845394 0.6573751197 0.7424380683 0.1621410041 0.6558959346 0.7439689886 0.1560737364 0.6050217758 0.8504164270 0.2447047929 0.6094593860 0.8547978172 0.2418199407 0.5207877445 0.7623079622 0.0984538920 0.7326244449 0.8580715815 0.2194224604 0.5647569330 0.8549072735 0.1613601293 0.5655267693 0.8555169459 0.1539798000 0.1730343062 0.4807018980 0.3236567551 0.1676284143 0.4847108337 0.4415797648 0.1371851090 0.6603756533 0.2433989114 0.0843426614 0.6890392817 0.2636067234 0.1609787419 0.6613642393 0.2413826985 0.3085899973 0.4589779364 0.2813390392 0.1181755674 0.7733212619 0.4079951644 0.2713053034 0.7854031220 0.2554915731 0.4240221884 0.5343447181 0.4165078353 0.2459776566 0.8876131048 0.3714659609 0.3884259008 0.8571725484 0.4472776740 0.4440353981 0.9113793926 0.2748748021 0.5616445621 0.7792420970 0.4616413857 0.7554936199 0.3406202479 0.5257845839 0.7495199063 0.3262551162 0.5224630176 0.7345019602 0.1931097745 0.5196235399 0.6605290533 0.0749993523 0.2089830411 0.6490838112 0.1078338793 0.2422285285 0.6081897679 0.1072137045 0.3162187206 0.5367601602 0.0942512951 0.3297755798 0.6493841429 0.8869638742 0.4454428123 0.6556963671 0.9007526133 0.3526589860 0.7433194965 0.9448584252 0.5285792962 0.6974698941 0.9101399092 0.3312258077 0.7119141261 0.2412591094 0.2824239400 0.6924186067 0.1619221560 0.4378081533 0.7639505520 0.3793922652 0.3440422571 0.7707214533 0.3873098367 0.3523770950 0.5690828160 0.3189389840 0.3114895114 0.5336132279 0.2358249275 0.4480196501 0.4819412602 0.2672322854 0.3472654217 0.4709843899 0.3274223677 0.5040745646 0.4582902082 0.3356217615 0.5056674554 0.5795334090 0.5973822650 0.5628420363 0.1273024911 0.2954767413 0.0794236919 0.1210384625 0.2920095822 0.0845559175 0.1781519133 0.3772229616 0.0528481360 0.1491806042 0.4387843901 0.0567973040 0.0950339405 0.4146375091 0.1045242909 0.2077634959 0.4386021284 0.0527594483 0.1964267811 0.4344029340 0.0567035038 0.2718749625 0.5419022617 0.0599612183 0.1116222643 0.4730053241 0.1347677007 0.1123303150 0.4827791049 0.1419969215 0.1047218245 0.4919976903 0.1450006462 0.0995283891 0.5073153221 0.1534056197 0.1196765994 0.6091406128 0.0768347829 0.1243204026 0.6140975654 0.0785165633 0.0730873873 0.6660762420 0.2038909904 0.0764702513 0.6738706436 0.1941684545 0.1369148726 0.3952627078 0.2409763590 0.2422459471 0.3041089278 0.2229986918 0.2366303205 0.2957943004 0.2228623613 0.2487392426 0.3044706425 0.2244275867 0.2293700994 0.2901875510 0.2219808941 0.2434166799 0.2948095060 0.2245526703 0.2197797966 0.2869053481 0.2202430963 0.2548951387 0.3066470784 0.2255314527 0.2368778084 0.2880605720 0.2240014927 0.2496543467 0.2953086147 0.2259039926 0.2609912230 0.3107719420 0.2263537216 0.2673370222 0.3172502167 0.2269131576 0.2743417374 0.3268905756 0.2272047833 0.0603522861 0.3238272176 0.2404851297 0.2818822183 0.3248791025 0.2291904194 0.2662884744 0.3215858376 0.3133205594 0.2734147263 0.3270590689 0.3139898757 0.2819333101 0.3344430144 0.3145703445 0.0744255635 0.2508412671 0.2704493934 0.0578786867 0.1727535955 0.2256874880 0.0724767436 0.1488085796 0.2300694345 0.1130376591 0.0685888087 0.2994531146 0.1289253060 0.0610864260 0.3107887241 0.2422547669 0.1318867147 0.3407940413 0.2508586501 0.1370750818 0.3420643686 0.2667422399 0.1556357642 0.3434279535 0.2741702007 0.1652661172 0.3439599740 0.2824407996 0.1697114972 0.3452282766 0.8331107422 0.1059771186 0.4126411268 0.7616630664 0.1556277217 0.5986015011 0.2868421703 0.2666543395 0.4162563561 0.2967478163 0.2800514489 0.5033416735 0.2899608544 0.2700880400 0.4141913525 0.2533406723 0.3449285062 0.3698876348 0.6321238155 0.7385984948 0.5150740883 0.7065847677 0.8567060463 0.5255975564 0.7580870037 0.7095131414 0.4490790072 0.7151125164 0.7765980280 0.3775941480 0.7225323781 0.7767463674 0.3766976306 0.7305588323 0.7779092355 0.3766461536 0.5482166084 0.5178311873 0.2034044002 0.6017109249 0.5231324919 0.2544267951 0.6024952850 0.5427079434 0.2596730858 0.6200554171 0.5473437237 0.0836121413 0.6262768923 0.5623798898 0.0836918984 0.6399168888 0.5592294159 0.0832528642 0.7413623503 0.6640040659 0.2510526181 0.8187571729 0.4748218853 0.2426561531 0.8265993398 0.4850381799 0.2452973830 0.7524144906 0.6663276474 0.2524318897 0.8343050242 0.4949659470 0.2477400628 0.7588209275 0.7526464759 0.1137650377 0.7644351204 0.6689948405 0.2538384543 0.7782296149 0.6722907289 0.2553023868 0.8025978617 0.7665677791 0.1615577541 0.8794290916 0.6238830221 0.0942480011 0.9217620710 0.5592791415 0.1912541456 0.8981065396 0.6355111263 0.0942348651 0.9265988190 0.6781278903 0.2684754294 0.9125084442 0.7262672700 0.2334608509 0.9396968037 0.6711603386 0.2629895681 0.3658369610 0.5765448587 0.0834060867 0.4802903498 0.7323978442 0.0278792712 0.4430146838 0.6659625758 0.0960834168 0.4495733233 0.6639625989 0.0952424162 0.4523176636 0.6598781915 0.0965688523 0.3894383182 0.1711178650 0.4217142185 0.3343404656 0.0835571018 0.4717759219 0.1711862158 0.1841325255 0.3886521172 0.2188313327 0.1388133334 0.4584808847 0.2164208234 0.1307101634 0.4588233510 0.1403135321 0.0872995013 0.4244834411 0.9245060518 0.4512308075 0.5991120863 0.2542854135 0.1549513701 0.0768076904 0.2905427093 0.1241629111 0.1289546721 0.3212523802 0.0796727985 0.1134399130 0.3626326971 0.1664667681 0.0989885669 0.3618309387 0.1720048612 0.1001044821 0.3650766532 0.1698896305 0.1024723544 0.3681015172 0.1735985677 0.1065942922 0.3291370812 0.2036711390 0.1572221472 0.3370283560 0.2091169488 0.1616219248 0.0616963883 0.1503868130 0.5058841579 0.1851216500 0.1664049000 0.5386223886 0.1482540815 0.2522719676 0.4788113317 0.0408619265 0.9383028643 0.1632359456 0.1579097353 0.9509082343 0.1726280706 0.1685791392 0.9469072674 0.1683399205 0.4622295219 0.4847466718 0.1661773757 0.4576788975 0.4751231090 0.1663078383 0.5259546726 0.3954070527 0.2669569985 0.8725098822 0.5657450785 0.0455833945 0.8788980873 0.5639507478 0.0436340875 0.9528864464 0.5565039973 0.0825380915 0.0849064139 0.9510828422 0.2971998448 0.7712214806 0.0774437020 0.2850168508 0.7246090044 0.0995839961 0.3032017741 0.8352521079 0.1252471517 0.3223205644 0.8417832399 0.1386878678 0.3278339034 0.7706857151 0.1909145630 0.2038782439 0.7747081341 0.1947443341 0.2067054089 0.3545452307 0.1906482711 0.5363536095 0.4138479664 0.2829781840 0.5658536962 0.8666785193 0.6117847505 0.3999515894 0.9000187574 0.4790285704 0.3657559534 0.9023716295 0.4737540096 0.3626669954 0.8961201092 0.4718373240 0.3633926684 0.9026597043 0.3806705532 0.2925002832 0.3432557518 0.9113882361 0.0686788087 0.3482616687 0.9041760549 0.0728380539 0.2973838043 0.8398938977 0.0897813678 0.2988502307 0.8343368709 0.0890936852 0.8006617087 0.6605887974 0.3595889156 0.7129884265 0.7598474944 0.2939691227 0.6751914379 0.6200709907 0.3384766947 0.1505536624 0.9041240146 0.4533545635 0.1568384197 0.9069558281 0.4542943335 0.1638704459 0.9049691397 0.4611509013 0.1183436115 0.9135516657 0.2299897734 0.1206159926 0.9132247116 0.2376264072 0.2538884115 0.3186090603 0.1147833654 0.2556515224 0.3240474283 0.1154228550 0.2607673346 0.3190475414 0.1151419090 0.2622002731 0.3245856550 0.1157025710 0.2673594676 0.3190447115 0.1154582093 0.2632094535 0.3301216779 0.1161807191 0.2685675809 0.3247273618 0.1158762206 0.3468194021 0.2670472857 0.0577934657 0.2798186183 0.4118505305 0.0597336513 0.1971353315 0.4195043216 0.3309617882 0.0960623251 0.1830953381 0.3771658470 0.1389062870 0.2200805357 0.3840749376 0.0946693337 0.2878759105 0.2933569505 0.0864188966 0.2774863481 0.2976398873 0.4081982475 0.1183300374 0.4692484693 0.4586711648 0.1612396710 0.4647184341 0.5474484452 0.0734658702 0.3945752016 0.2104367052 0.9246373679 0.4357746228 0.2037147098 0.9441944265 0.2493241516 0.4945082736 0.2585974596 0.5278693048 0.5160369446 0.1900614269 0.5208614081 0.4481338618 0.1901832874 0.4322382496 0.7877261351 0.0604356241 0.2304635027 0.7452393215 0.0904788640 0.1135681655 0.7473428506 0.0847646250 0.1100398759 0.5441109800 0.9293562175 0.2836657943 0.5806685629 0.9171744956 0.2163531396 0.9298769743 0.1574358768 0.2732645962 0.9336059686 0.1653638354 0.3151456839 0.9201342515 0.3917672653 0.3642043389 0.9292444187 0.4903319610 0.0539823768 0.9374867794 0.5080596555 0.0516036663 0.4215204253 0.9072909164 0.0808131628 0.4207511150 0.9138887978 0.0801973199 0.3612102160 0.9025984359 0.1293041875 0.3545256132 0.9049146953 0.1273016636 0.3593725328 0.9112309781 0.1310189693 0.5782644634 0.7440754839 0.4991609022 0.5337228906 0.8246858375 0.0371043935 0.5433426690 0.8164990282 0.0375321288 0.5642088129 0.8933271802 0.0198643511 0.4638972187 0.8161922742 0.5031874761 0.4149350295 0.8547917567 0.5493718239 0.9747932562 0.8497445264 0.2395962383 0.9389750614 0.8826099523 0.4045541214 0.8712854509 0.0871714007 0.2305458199 0.8753936955 0.0821246892 0.2292613261 0.9030900106 0.0948507588 0.1475155528 0.9030598853 0.0847334338 0.1388242012 0.8969840459 0.0741264008 0.1293085953 0.6527992447 0.8787578824 0.0702462544 0.4835284386 0.8946714899 0.0915556674 0.2215859629 0.0588635040 0.0857955371 0.1087911152 0.8219189298 0.4283376020 0.1134920767 0.8191560505 0.4330520514 0.1049553567 0.8198850702 0.4275519779 0.1104294333 0.8171621543 0.4327094695 0.1069334489 0.8153084658 0.4319964536 0.2956501227 0.8896863859 0.1446681691 0.2965104203 0.8939341548 0.1462671417 0.2983068375 0.8872810594 0.1451239858 0.2990007275 0.8700991028 0.1404393754 0.3666229302 0.8040294206 0.1303162524 0.3963293263 0.9317694039 0.1836887074 0.4111278706 0.9315741292 0.1815258103 0.4012076108 0.9056757433 0.1524480327 0.1589962148 0.1246741488 0.0239333503 0.0940004971 0.1063470411 0.0904436810 0.0876448852 0.1100353113 0.0874515217 0.1062431290 0.2156040949 0.0762311335 0.2005883548 0.1345594969 0.0795028546 0.8185698087 0.8958937291 0.0979300340 0.8126983808 0.8990535613 0.1005244906 0.8165882757 0.9079913908 0.0989721494 0.8108732562 0.9117824104 0.1014503114 0.8010857409 0.9060124998 0.2688979077 0.8277413402 0.9023845403 0.3705073303 0.8226493957 0.8812914690 0.3712182864 0.8111774789 0.6726480468 0.4494833378 0.8143835481 0.6779942158 0.4450545326 0.8944860734 0.3796122127 0.3966676201 0.0647587866 0.1017459328 0.4689409942 0.1126175785 0.2209132179 0.3924628831 0.6895167276 0.0704306811 0.3675966280 0.6949259063 0.0642516245 0.3645849484 0.8756859705 0.1925847967 0.3770637429 0.8663839346 0.1970558346 0.3758837561 0.8710828312 0.0358095376 0.3240885520 0.8648398704 0.0294196570 0.3279844695 0.8445366662 0.0283946580 0.3666222835 0.8367616894 0.0324907733 0.3717345597 0.2873812372 0.4825376655 0.5242660270 0.3970365294 0.1374119143 0.0565616849 0.4240576676 0.3158318036 0.1081647396 0.8859159376 0.8594311975 0.2073654081 0.8889760241 0.8512050576 0.2012131975 0.8233893330 0.8789785278 0.1568613575 0.8254340627 0.8820186041 0.1595108049 0.8195232365 0.8818193768 0.1585838756 0.8215047106 0.8848557304 0.1611909877 0.8176474190 0.8876406946 0.1628596172 0.8195493219 0.8909066110 0.1656279780 0.8137717819 0.8905217419 0.1646175674 0.8155085272 0.8939760942 0.1674781372 0.8112893940 0.8974337004 0.1696240429 0.5565559881 0.0628168223 0.5266215328 0.5083565636 0.0969626353 0.5914876464 0.1093045547 0.2036340057 0.1094655967 0.5767268864 0.5357840882 0.0339051209 0.9094789947 0.1044810873 0.0858383331 0.9073522966 0.1101523632 0.0902913783 0.9068340600 0.1145706073 0.0939917917 0.9097956343 0.1435294186 0.1195323068 0.9077364951 0.1181645358 0.0972655625 0.9073275895 0.1330032570 0.1099669312 0.9101344813 0.1211736265 0.1003379038 0.9096124738 0.1284186848 0.1064744592 0.6297152109 0.0632700945 0.4051210987 0.6173347355 0.0622177718 0.4022464894 0.5455760116 0.0799009482 0.3619750820 0.9412272319 0.2743765486 0.1304823658 0.9269601726 0.2777959799 0.1308212232 0.3672953167 0.4697967240 0.0749085572 0.2030491226 0.6324884559 0.0592115030 0.1974499735 0.6197619575 0.0527540498 0.3277741947 0.6602246018 0.1367031588 0.3709415577 0.5212911422 0.0765063722 0.9708353620 0.3529325001 0.0775990205 0.9715802942 0.3565548832 0.0752525379 0.9699432294 0.3599493699 0.0787157515 0.9705916683 0.3630806205 0.0765636341 0.9254160229 0.4582070777 0.1274723242 0.9322537258 0.4571205925 0.1148185409 0.3941468715 0.7294399391 0.1180978542 0.3965713461 0.7258771843 0.1194327404 0.5179369721 0.4796156949 0.0656271329 0.0903127964 0.3602276864 0.3688267097 0.0792301246 0.3465030844 0.4393200972 0.0841780775 0.3414636697 0.4387165147 0.0954821781 0.3509705065 0.3719971013 0.2933106068 0.8813017597 0.4666377546 0.3744213340 0.0853460659 0.4940646693 0.0713088942 0.4061068862 0.2644851234 0.1026356539 0.4555908261 0.2208643163 0.0962155116 0.4531164059 0.2182797439 0.4015846832 0.0679628860 0.5392825109 0.8381660053 0.8937584768 0.4465837365 0.5251447530 0.0169429807 0.5118313176 0.4813130144 0.9184261843 0.1873850570 0.4755535397 0.9124390082 0.1836169037
        </DataArray>
      </Points>
      <Cells>
        <DataArray type="Int32" Name="connectivity" format="ascii">
 0 1 2 3 4 5 6 7 8 9 10 11 12 13 14 15 16 17 18 19 20 21 22 23 24 25 26 27 28 29 30 31 32 33 34 35 36 37 38 39 40 41 42 43 44 45 46 47 48 49 50 51 52 53 54 55 56 57 58 59 60 61 62 63 64 65 66 67 68 69 70 71 72 73 74 75 76 77 78 79 80 81 82 83 84 85 86 87 88 89 90 91 92 93 94 95 96 97 98 99 100 101 102 103 104 105 106 107 108 109 110 111 112 113 114 115 116 117 118 119 120 121 122 123 124 125 126 127 128 129 130 131 132 133 134 135 136 137 138 139 140 141 142 143 144 145 146 147 148 149 150 151 152 153 154 155 156 157 158 159 160 161 162 163 164 165 166 167 168 169 170 171 172 173 174 175 176 177 178 179 180 181 182 183 184 185 186 187 188 189 190 191 192 193 194 195 196 197 198 199 200 201 202 203 204 205 206 207 208 209 210 211 212 213 214 215 216 217 218 219 220 221 222 223 224 225 226 227 228 229 230 231 232 233 234 235 236 237 238 239 240 241 242 243 244 245 246 247 248 249 250 251 252 253 254 255 256 257 258 259 260 261 262 263 264 265 266 267 268 269 270 271 272 273 274 275 276 277 278 279 280 281 282 283 284 285 286 287 288 289 290 291 292 293 294 295 296 297 298 299 300 301 302 303 304 305 306 307 308 309 310 311 312 313 314 315 316 317 318 319 320 321 322 323 324 325 326 327 328 329 330 331 332 333 334 335 336 337 338 339 340 341 342 343 344 345 346 347 348 349 350 351 352 353 354 355 356 357 358 359 360 361 362
        </DataArray>
        <DataArray type="Int32" Name="offsets" format="ascii">
 1 2 3 4 5 6 7 8 9 10 11 12 13 14 15 16 17 18 19 20 21 22 23 24 25 26 27 28 29 30 31 32 33 34 35 36 37 38 39 40 41 42 43 44 45 46 47 48 49 50 51 52 53 54 55 56 57 58 59 60 61 62 63 64 65 66 67 68 69 70 71 72 73 74 75 76 77 78 79 80 81 82 83 84 85 86 87 88 89 90 91 92 93 94 95 96 97 98 99 100 101 102 103 104 105 106 107 108 109 110 111 112 113 114 115 116 117 118 119 120 121 122 123 124 125 126 127 128 129 130 131 132 133 134 135 136 137 138 139 140 141 142 143 144 145 146 147 148 149 150 151 152 153 154 155 156 157 158 159 160 161 162 163 164 165 166 167 168 169 170 171 172 173 174 175 176 177 178 179 180 181 182 183 184 185 186 187 188 189 190 191 192 193 194 195 196 197 198 199 200 201 202 203 204 205 206 207 208 209 210 211 212 213 214 215 216 217 218 219 220 221 222 223 224 225 226 227 228 229 230 231 232 233 234 235 236 237 238 239 240 241 242 243 244 245 246 247 248 249 250 251 252 253 254 255 256 257 258 259 260 261 262 263 264 265 266 267 268 269 270 271 272 273 274 275 276 277 278 279 280 281 282 283 284 285 286 287 288 289 290 291 292 293 294 295 296 297 298 299 300 301 302 303 304 305 306 307 308 309 310 311 312 313 314 315 316 317 318 319 320 321 322 323 324 325 326 327 328 329 330 331 332 333 334 335 336 337 338 339 340 341 342 343 344 345 346 347 348 349 350 351 352 353 354 355 356 357 358 359 360 361 362 363
        </DataArray>
        <DataArray type="UInt8" Name="types" format="ascii">
 1 1 1 1 1 1 1 1 1 1 1 1 1 1 1 1 1 1 1 1 1 1 1 1 1 1 1 1 1 1 1 1 1 1 1 1 1 1 1 1 1 1 1 1 1 1 1 1 1 1 1 1 1 1 1 1 1 1 1 1 1 1 1 1 1 1 1 1 1 1 1 1 1 1 1 1 1 1 1 1 1 1 1 1 1 1 1 1 1 1 1 1 1 1 1 1 1 1 1 1 1 1 1 1 1 1 1 1 1 1 1 1 1 1 1 1 1 1 1 1 1 1 1 1 1 1 1 1 1 1 1 1 1 1 1 1 1 1 1 1 1 1 1 1 1 1 1 1 1 1 1 1 1 1 1 1 1 1 1 1 1 1 1 1 1 1 1 1 1 1 1 1 1 1 1 1 1 1 1 1 1 1 1 1 1 1 1 1 1 1 1 1 1 1 1 1 1 1 1 1 1 1 1 1 1 1 1 1 1 1 1 1 1 1 1 1 1 1 1 1 1 1 1 1 1 1 1 1 1 1 1 1 1 1 1 1 1 1 1 1 1 1 1 1 1 1 1 1 1 1 1 1 1 1 1 1 1 1 1 1 1 1 1 1 1 1 1 1 1 1 1 1 1 1 1 1 1 1 1 1 1 1 1 1 1 1 1 1 1 1 1 1 1 1 1 1 1 1 1 1 1 1 1 1 1 1 1 1 1 1 1 1 1 1 1 1 1 1 1 1 1 1 1 1 1 1 1 1 1 1 1 1 1 1 1 1 1 1 1 1 1 1 1 1 1 1 1 1 1 1 1 1 1 1 1 1 1 1 1 1 1 1 1
        </DataArray>
      </Cells>
      <PointData Scalars="overlap">
        <DataArray type="Float32" Name="overlap" format="ascii">
 0.0002308244 0.0000267900 0.0002123863 0.0000360826 0.0000824928 0.0000389988 0.0000461108 0.0002407587 0.0002623037 0.0001121129 0.0000551254 0.0000769125 0.0005062762 0.0000554720 0.0002827666 0.0000974946 0.0001532142 0.0000098600 0.0000199460 0.0002444191 0.0000871849 0.0002031331 0.0000818119 0.0001941809 0.0001177122 0.0000369334 0.0000177340 0.0000154294 0.0000941463 0.0002828350 0.0000442305 0.0002103397 0.0000699053 0.0000611512 0.0000923396 0.0001194519 0.0001752412 0.0000210789 0.0000112932 0.0001757501 0.0000441577 0.0000510863 0.0001675546 0.0000462571 0.0000697587 0.0002380847 0.0000800103 0.0000603585 0.0002770089 0.0001861438 0.0000637874 0.0000873365 0.0001073347 0.0001216081 0.0003371430 0.0000158038 0.0000300865 0.0001449842 0.0000140688 0.0000452030 0.0000584586 0.0000051804 0.0000946907 0.0000159085 0.0000045929 0.0000075766 0.0000396513 0.0001752672 0.0000076944 0.0000247799 0.0002534291 0.0001240286 0.0000301504 0.0001098794 0.0000191549 0.0000187052 0.0000080640 0.0000193882 0.0000413548 0.0000083615 0.0000438277 0.0000294334 0.0001022293 0.0001208388 0.0000522623 0.0000093015 0.0000142035 0.0000305082 0.0000271020 0.0001046029 0.0000668166 0.0000592157 0.0000520189 0.0000541091 0.0000759567 0.0000600872 0.0000947644 0.0000365269 0.0000515912 0.0000140312 0.0001062978 0.0000097464 0.0000175510 0.0001206345 0.0001345593 0.0001215030 0.0000853482 0.0001323800 0.0000109641 0.0000250025 0.0000007842 0.0000414684 0.0000060630 0.0000224164 0.0000496724 0.0000164191 0.0000122751 0.0000472810 0.0001150820 0.0000524656 0.0000274856 0.0000406811 0.0000350003 0.0000121811 0.0000402587 0.0000057492 0.0000524159 0.0000121073 0.0000121541 0.0000135874 0.0000012527 0.0000335497 0.0000143547 0.0000068466 0.0000227156 0.0000099768 0.0001788993 0.0000199673 0.0000574743 0.0000033007 0.0000743280 0.0002053633 0.0000139195 0.0001450431 0.0001899332 0.0000235020 0.0000234657 0.0001677928 0.0000079795 0.0000429276 0.0002919806 0.0000103236 0.0000053794 0.0000117599 0.0000477690 0.0000042068 0.0000113250 0.0000057946 0.0000766685 0.0000497655 0.0000492794 0.0000542611 0.0000122375 0.0000372227 0.0000590147 0.0000337005 0.0000318988 0.0000017099 0.0000559962 0.0000128473 0.0000196863 0.0000517897 0.0000184950 0.0000508985 0.0000312483 0.0000248559 0.0000267219 0.0000520733 0.0000195284 0.0000235506 0.0000258319 0.0000109484 0.0000236973 0.0000161979 0.0000683775 0.0000343372 0.0000037074 0.0000159574 0.0000325582 0.0000613929 0.0000637631 0.0000407917 0.0002394523 0.0000662370 0.0000122552 0.0000083995 0.0000276641 0.0000859476 0.0000715374 0.0000939360 0.0000547460 0.0000057232 0.0000855723 0.0000305503 0.0000604106 0.0000610116 0.0000009229 0.0000031328 0.0000481062 0.0000914929 0.0000135037 0.0000024809 0.0000237574 0.0000807011 0.0001130036 0.0003484390 0.0003140884 0.0000344029 0.0000134187 0.0001272477 0.0001653606 0.0000223519 0.0000357355 0.0000068434 0.0000567253 0.0000043432 0.0000166009 0.0000172368 0.0000043778 0.0000264577 0.0000851553 0.0000712361 0.0000030617 0.0000377528 0.0000310173 0.0000233725 0.0000291182 0.0000173744 0.0000232924 0.0000171469 0.0000825404 0.0000085666 0.0000435957 0.0000038309 0.0000075991 0.0000698439 0.0002024976 0.0001039175 0.0000683170 0.0000630487 0.0000256388 0.0000490354 0.0000833595 0.0000188809 0.0000655079 0.0000212917 0.0001322555 0.0000205458 0.0000413395 0.0000012463 0.0000694258 0.0000659697 0.0000150020 0.0000070555 0.0000106793 0.0000084395 0.0000179143 0.0000185271 0.0000225089 0.0000361433 0.0000221117 0.0000238883 0.0000267943 0.0000104072 0.0000058190 0.0000105909 0.0000628502 0.0001181844 0.0000072708 0.0000182161 0.0000305616 0.0000070805 0.0000193576 0.0000237056 0.0000731863 0.0000779300 0.0000773951 0.0000096106 0.0000838348 0.0000014564 0.0000348644 0.0000027786 0.0000016405 0.0000222463 0.0000261247 0.0000087127 0.0000249074 0.0000257602 0.0000145569 0.0000163879 0.0000122486 0.0000218228 0.0000233338 0.0000420168 0.0000276336 0.0000006482 0.0000110849 0.0000610415 0.0000853723 0.0000162652 0.0000138521 0.0000040935 0.0000534622 0.0000600161 0.0000380696 0.0000342467 0.0000598480 0.0000485097 0.0000169553 0.0000106593 0.0000070926 0.0000022321 0.0000470190 0.0000169245 0.0000074170 0.0000299305 0.0000228952 0.0000033937 0.0000590234 0.0000448638 0.0000124410 0.0000262918 0.0000409717 0.0000112354 0.0000030342 0.0000354866 0.0000240467 0.0000090702 0.0000128932 0.0000389470 0.0000205289 0.0000167709 0.0000109745 0.0000057369 0.0000152174 0.0000111413 0.0000097195 0.0000155368 0.0000123419 0.0000694746 0.0000063695 0.0000773860 0.0000234463 0.0000485187 0.0000261870 0.0000725798 0.0000077367 0.0000389703 0.0000198110 0.0000205323 0.0000154256 0.0000314224 0.0001446285
        </DataArray>
        <DataArray type="Float32" Name="contact normal" NumberOfComponents="3" format="ascii">