<?xml version="1.0"?>
<VTKFile type="UnstructuredGrid" version="0.1" byte_order="LittleEndian">
  <UnstructuredGrid>
    <FieldData>
      <DataArray type="Float32" Name="TIME"  NumberOfTuples="1" format="ascii"> 1.5000000000 </DataArray>
      <DataArray type="Int32"   Name="STEP"  NumberOfTuples="1" format="ascii"> 150000 </DataArray>
    </FieldData>
    <Piece NumberOfPoints="353" NumberOfCells="353">
      <Points>
        <DataArray type="Float32" NumberOfComponents="3" format="ascii">
 0.4249483842 0.2066974724 0.0759125582 0.4852458115 0.1509279558 0.1866492624 0.5300971733 0.1284721960 0.0401858447 0.5051129615 0.1472494883 0.1826669618 0.6404087232 0.1081645634 0.1126358478 0.5396389911 0.3646841771 0.2038900877 0.5528889830 0.3590923041 0.2071187021 0.5679213551 0.4472643787 0.1937510615 0.7522594962 0.1786753714 0.1459011589 0.7585695114 0.1855307931 0.1503165706 0.6781817853 0.4551068072 0.1693398518 0.8448535144 0.2200510801 0.1194301300 0.8496642607 0.2320776905 0.1152382751 0.7817419186 0.3732311102 0.0369811820 0.7954456540 0.3701526238 0.0373597484 0.8169374698 0.3855881371 0.0431784201 0.8043040549 0.3963576495 0.2240316023 0.8177168486 0.3880534752 0.2261986032 0.8970519854 0.3686237764 0.1723803959 0.7849643978 0.3673990674 0.5626013992 0.7881162218 0.3443336739 0.5594356384 0.8949552107 0.6091645172 0.4962272160 0.9320254774 0.2943599453 0.5309735025 0.9636909878 0.4927887527 0.4447426687 0.9466954403 0.4762796685 0.4516059053 0.2427443183 0.7998179750 0.0414404958 0.2550207227 0.8173712687 0.0914959610 0.0745233562 0.9091059607 0.1097096574 0.1543806394 0.7223142029 0.0815359520 0.0388122323 0.8885682833 0.1661406104 0.0554841498 0.8047804911 0.1552953366 0.0622461244 0.7985053372 0.1588358010 0.1716943745 0.7198661604 0.1454248663 0.5695289471 0.7613429824 0.2454912922 0.6835714824 0.7581968457 0.2617457721 0.6516730204 0.7388500526 0.1620254669 0.7063825796 0.8126113341 0.2796964217 0.6572466057 0.7423805831 0.1620775123 0.6557664618 0.7439223400 0.1560121101 0.6050441767 0.8503399273 0.2447488603 0.6094832845 0.8547261139 0.2418737143 0.5206807388 0.7624937700 0.0983864847 0.7326566085 0.8578574061 0.2194719730 0.7273802923 0.8566067847 0.2067811569 0.5647747006 0.8549845258 0.1614129844 0.5655465596 0.8555995391 0.1540334176 0.1729517444 0.4807188500 0.3235985268 0.1676110258 0.4846457321 0.4415229921 0.1370809831 0.6604682919 0.2434910824 0.0842403451 0.6891156612 0.2637498578 0.1608734028 0.6614483157 0.2414655636 0.2575559264 0.4522166181 0.3446670527 0.3084889841 0.4590156572 0.2811921837 0.1181475868 0.7732932519 0.4082217960 0.2712128798 0.7854896553 0.2556224899 0.4239883633 0.5342695905 0.4163661884 0.4307566016 0.5454982185 0.4204362026 0.2459375394 0.8876057667 0.3717111298 0.4439712733 0.9114249770 0.2750233165 0.5616526140 0.7791120334 0.4616045339 0.7428167937 0.3438258532 0.5298838064 0.7557053462 0.3411163505 0.5258984384 0.5799772183 0.2029884950 0.5693483674 0.7351144343 0.1934370315 0.5251365820 0.6605702506 0.0750424171 0.2096600290 0.6490457646 0.1079869852 0.2427725891 0.6079779583 0.1076017934 0.3166714751 0.5365180869 0.0946746981 0.3301106823 0.6556279018 0.9006128379 0.3525226738 0.6975730902 0.9099113194 0.3313891194 0.7119002007 0.2409686641 0.2828237033 0.6925203949 0.1620014692 0.4384122066 0.7639092182 0.3792803772 0.3440848662 0.7706790294 0.3872137910 0.3524071643 0.5690473476 0.3186604380 0.3117825259 0.5336856710 0.2358547895 0.4485376727 0.4819334474 0.2669928336 0.3477221021 0.4710479026 0.3275610971 0.5044030941 0.4583537153 0.3357642554 0.5059763040 0.3861280010 0.4139379989 0.4443980035 0.3846714635 0.4207101887 0.4579081001 0.5795085900 0.5977035174 0.5624563330 0.1210597637 0.2920119983 0.0845289016 0.1781837770 0.3772405332 0.0528758606 0.1492143978 0.4388064874 0.0568378128 0.0950468780 0.4146452503 0.1045365661 0.2078087392 0.4386104817 0.0528191431 0.1964760343 0.4344111848 0.0567575862 0.2719290883 0.5419039662 0.0600443682 0.1116504659 0.4730375563 0.1348003193 0.1123566672 0.4828091695 0.1420326701 0.1047500922 0.4920309780 0.1450313506 0.0995565514 0.5073492423 0.1534351058 0.0950498738 0.5211535593 0.1610678387 0.0880560977 0.5290862531 0.1634780100 0.1197377225 0.6091760402 0.0768578793 0.1243818417 0.6141321778 0.0785408876 0.0731250975 0.6661169444 0.2039154221 0.0765120645 0.6739062664 0.1941920323 0.1368541817 0.3951559824 0.2408173618 0.2422410944 0.3040279031 0.2229840541 0.2366296727 0.2957103664 0.2228523409 0.2487337860 0.3043939445 0.2244146286 0.2293725199 0.2900993229 0.2219729413 0.2434160216 0.2947302539 0.2245454085 0.2197843774 0.2868110086 0.2202347477 0.2548882650 0.3065742944 0.2255186876 0.2368806887 0.2879776451 0.2239973650 0.2496529104 0.2952336820 0.2258980490 0.2609820394 0.3107028280 0.2263396600 0.2673244250 0.3171847005 0.2268960992 0.2743242123 0.3268287986 0.2271825236 0.0603295329 0.3236811153 0.2403546260 0.2818651143 0.3248225958 0.2291719356 0.2662301894 0.3216112162 0.3132944544 0.2733531248 0.3270888419 0.3139633659 0.2818679611 0.3344773813 0.3145404582 0.0744241219 0.2507311253 0.2703986296 0.0579350963 0.1725921084 0.2257185049 0.0725350957 0.1486540757 0.2301283147 0.1131001157 0.0685287352 0.2996249596 0.2422679342 0.1319317109 0.3409640938 0.2508688478 0.1371253416 0.3422329065 0.2667426766 0.1556950782 0.3435870238 0.2741657643 0.1653294086 0.3441139384 0.2824336727 0.1697800166 0.3453812353 0.8686566680 0.1861738274 0.4382773449 0.8299878640 0.1068348749 0.4135920502 0.2870886061 0.2669330297 0.4161784630 0.2904924227 0.2674494095 0.4190071830 0.2970011123 0.2800966964 0.5032980696 0.2539672128 0.3454419892 0.3699586148 0.3101654517 0.3806865199 0.4292987411 0.6344454294 0.7377948763 0.5177667734 0.7511873614 0.6997427054 0.4572697581 0.7535152777 0.7062700177 0.4604330119 0.7294085630 0.7790521954 0.3775210783 0.6015495667 0.5231662046 0.2544634369 0.6023320330 0.5427426690 0.2596912488 0.6199228829 0.5472620616 0.0836252579 0.6261445971 0.5622982314 0.0837016197 0.6397835411 0.5591475984 0.0832541984 0.8185950506 0.4748372965 0.2427613408 0.8264374768 0.4850539616 0.2454006308 0.7522556078 0.6663527931 0.2523967912 0.8341434405 0.4949819429 0.2478414037 0.7586878431 0.7525807170 0.1136699895 0.7642767573 0.6690186921 0.2538012582 0.8024581664 0.7665331943 0.1614645956 0.9216159671 0.5592565111 0.1913192100 0.8979748221 0.6354267959 0.0942402862 0.9264381461 0.6781579924 0.2684633349 0.9123547132 0.7262764014 0.2334153160 0.9395361467 0.6711869886 0.2629844128 0.3658193230 0.5764951583 0.0836245258 0.4799148307 0.7324269866 0.0276061826 0.4521633800 0.6600208652 0.0965044782 0.3894470089 0.1709762590 0.4218927343 0.3839926106 0.1587178592 0.4251368366 0.3341664115 0.0835126733 0.4719178424 0.1712156044 0.1843952092 0.3887944731 0.2163390803 0.1308766166 0.4589645344 0.1401567926 0.0876098434 0.4245984636 0.9330006822 0.4440317744 0.6013416095 0.2542792478 0.1548482503 0.0769322414 0.3213415656 0.0796023932 0.1134758946 0.3626451575 0.1664320297 0.0989936445 0.3618443632 0.1719705898 0.1001078297 0.3650922669 0.1698565907 0.1024736212 0.3681207095 0.1735674349 0.1065911820 0.3291930942 0.2036047199 0.1572679072 0.3370812203 0.2090591593 0.1616612401 0.0617985825 0.1506888235 0.5060814386 0.1852148343 0.1661063425 0.5391416630 0.1486415906 0.2526254359 0.4800756579 0.0408233406 0.9383439240 0.1631403715 0.1578604550 0.9509616472 0.1726451524 0.1685328700 0.9469578397 0.1683652010 0.4619217678 0.4846491163 0.1666104512 0.4573733544 0.4750233098 0.1667696025 0.5263682510 0.3952412277 0.2668751458 0.5220883732 0.3917721604 0.2690212280 0.8804961189 0.5609428039 0.0484523261 0.8722593656 0.5656948325 0.0455827706 0.8786475188 0.5638957219 0.0436395234 0.9526036528 0.5563119215 0.0825743773 0.0848950421 0.9511274719 0.2973673782 0.7712073124 0.0773696540 0.2851078152 0.7245776154 0.0994882654 0.3032773684 0.8352117097 0.1251677123 0.3224815612 0.8417211848 0.1386315345 0.3279612837 0.7706859162 0.1908633435 0.2040029455 0.7747062173 0.1946949315 0.2068309824 0.3539319369 0.1907374575 0.5372089152 0.4141162117 0.2827012408 0.5660408816 0.9517293899 0.6151628323 0.3350282926 0.8660194207 0.6118433427 0.4001653776 0.9064171342 0.4815903959 0.3653957525 0.8997873759 0.4791793677 0.3659600633 0.9021466608 0.4739316796 0.3628528304 0.8959084921 0.4719866364 0.3636081739 0.9027743091 0.3808844557 0.2926429210 0.8123637034 0.0842160478 0.5861576456 0.3482073691 0.9042651472 0.0729457034 0.2973773228 0.8399294799 0.0898181504 0.2988474884 0.8343730640 0.0891324727 0.8002924396 0.6601752474 0.3597935211 0.7128363326 0.7595959195 0.2941089338 0.6747625096 0.6198842117 0.3385830916 0.1429124958 0.9017870946 0.4518114371 0.1496993018 0.9041401731 0.4537889669 0.1508799435 0.8991242539 0.4599352564 0.1568155581 0.9015116107 0.4613299285 0.1182281237 0.9136260475 0.2300519030 0.1204993677 0.9133135465 0.2376895120 0.2538817280 0.3185054623 0.1147542045 0.2556423531 0.3239439759 0.1153979758 0.2607596891 0.3189461192 0.1151178569 0.2621905188 0.3244841641 0.1156827539 0.2673519392 0.3189454495 0.1154388974 0.2631976494 0.3300206880 0.1161648896 0.2685580750 0.3246280480 0.1158608043 0.3469327625 0.2670710923 0.0578054330 0.2798675115 0.4118502107 0.0598931339 0.1971784398 0.4194566615 0.3306015754 0.3173072822 0.4049206445 0.3907861751 0.0960850018 0.1830139329 0.3772118124 0.1002809607 0.1886150066 0.3769343294 0.1387925013 0.2201403386 0.3842199981 0.0945620802 0.2877512775 0.2933620031 0.0863267232 0.2773503789 0.2976346592 0.4080656148 0.1186495116 0.4702727444 0.4585255320 0.1615131730 0.4652334342 0.5510512208 0.0553863952 0.4375172053 0.5468575333 0.0733550992 0.3950131274 0.2099547517 0.9243941730 0.4358544593 0.2036361230 0.9442540954 0.2493860360 0.4842760544 0.2616402498 0.5239199776 0.5160011169 0.1908378907 0.5218040857 0.4481448525 0.1902302344 0.4331288755 0.7878404594 0.0598642919 0.2310130789 0.7454486064 0.0909376885 0.1143415273 0.7475513655 0.0852449302 0.1107759969 0.5439668254 0.9291201866 0.2837971504 0.9402471286 0.1609960465 0.2661593453 0.9293437485 0.1579667076 0.2727784917 0.9336223349 0.1656516331 0.3146724404 0.9203524113 0.3917157678 0.3653432546 0.9291220915 0.4903797534 0.0540000332 0.9373324564 0.5081228841 0.0516257457 0.4214980310 0.9071869706 0.0808065691 0.4207359163 0.9137842249 0.0802007637 0.3612365809 0.9025413460 0.1293885596 0.3545620293 0.9048827315 0.1273815755 0.3594282422 0.9111793440 0.1311071333 0.5335913665 0.8248909573 0.0371208739 0.5431733361 0.8166590043 0.0375371552 0.5643843087 0.8933925727 0.0198739797 0.9748210342 0.8496214900 0.2394421200 0.9387331804 0.8838490910 0.4040637641 0.8713487384 0.0865734922 0.2305086192 0.8672845089 0.0834487929 0.2256230441 0.9065149428 0.1049872980 0.1564176001 0.9029414611 0.0947356698 0.1474307005 0.9030417897 0.0846137809 0.1387451938 0.2215642642 0.0592818895 0.0858818300 0.1184782939 0.8240437931 0.4331272034 0.1159845686 0.8213809431 0.4335904854 0.1085401218 0.8218169918 0.4288955289 0.1132735745 0.8190943855 0.4336008920 0.2956511345 0.8897214849 0.1447011885 0.2965131102 0.8939664192 0.1463082942 0.2989915426 0.8701321641 0.1404758268 0.3963246646 0.9317333973 0.1838054461 0.4111233484 0.9315282313 0.1816488128 0.1591209792 0.1246430944 0.0239147250 0.0941200165 0.1063860274 0.0904403390 0.0877670797 0.1100757604 0.0874449069 0.1062539596 0.2155411427 0.0761911093 0.2005838790 0.1344804403 0.0794929848 0.8184725177 0.8958685756 0.0980558532 0.8125967327 0.8990263279 0.1006428974 0.8164869199 0.9079652183 0.0990994309 0.8009912439 0.9058775343 0.2690769685 0.8272833604 0.9024873094 0.3707779296 0.8222162647 0.8813889297 0.3715084526 0.1350519450 0.3386990170 0.5537915538 0.8959248986 0.3804460240 0.3968356967 0.0646999109 0.1019013496 0.4692783970 0.1127343141 0.2207331949 0.3923921023 0.6945349016 0.0642351531 0.3645696923 0.8753833837 0.1930197553 0.3771085632 0.8660517112 0.1974376420 0.3759485776 0.8713944808 0.0361162445 0.3244981796 0.8651973020 0.0296959895 0.3284174668 0.8372698106 0.0327533468 0.3722348728 0.3969585667 0.1373235073 0.0565356544 0.4243049144 0.3157022771 0.1080932383 0.8858542057 0.8592344735 0.2074377335 0.8888987949 0.8509996980 0.2012893437 0.8233304494 0.8789360556 0.1569777942 0.8253800815 0.8819721916 0.1596281013 0.8194682590 0.8817787720 0.1587059801 0.8214546123 0.8848112966 0.1613140222 0.8176011374 0.8875981725 0.1629882709 0.8195081055 0.8908599638 0.1657578496 0.8137294633 0.8904810605 0.1647519260 0.8154715185 0.8939313406 0.1676140429 0.8112571612 0.8973907270 0.1697664492 0.5556144727 0.0633599900 0.5267013523 0.5059535521 0.0988615904 0.5910574888 0.1093597022 0.2034448018 0.1094843829 0.0712674167 0.6606506989 0.5004617816 0.5765516028 0.5356266039 0.0339430981 0.9094801476 0.1044896826 0.0858649494 0.9073532018 0.1101591615 0.0903201674 0.9068350178 0.1145769848 0.0940210901 0.9097983069 0.1435385066 0.1195583348 0.9077377802 0.1181717094 0.0972939003 0.9073293388 0.1330101617 0.1099955957 0.9101363946 0.1211828812 0.1003637285 0.9096145442 0.1284275305 0.1065007787 0.6292193341 0.0631190058 0.4052647036 0.6168287166 0.0620648660 0.4024377699 0.5449305717 0.0798219094 0.3624440380 0.9413172703 0.2743424046 0.1304291007 0.9270498338 0.2777606593 0.1308019149 0.3673224518 0.4698121871 0.0749601673 0.2030709360 0.6324854732 0.0591675284 0.1974773626 0.6197627067 0.0526978488 0.3709336932 0.5212981256 0.0767434050 0.9708334456 0.3529351592 0.0776010915 0.9715783683 0.3565586557 0.0752567978 0.9699331635 0.3599508759 0.0787164518 0.9705820688 0.3630831704 0.0765665782 0.9253873726 0.4581768453 0.1275196271 0.9322181012 0.4570976081 0.1148617794 0.3941050562 0.7294019607 0.1182742806 0.3965392458 0.7258451393 0.1196073049 0.5179920262 0.4798637117 0.0663523443 0.0899948483 0.3601048373 0.3688733452 0.0792975227 0.3463307006 0.4394076365 0.0842311450 0.3412672755 0.4387990077 0.0951974060 0.3508602232 0.3720254304 0.3746152983 0.0662318812 0.4821192159 0.3041398610 0.0731366086 0.5397653647 0.7024238455 0.0460674542 0.4434655931 0.0712513994 0.4059604700 0.2644470713 0.1025126969 0.4555754130 0.2208501721 0.0960915636 0.4531042341 0.2182654388 0.8381152998 0.8938165413 0.4468003699 0.4812559043 0.9183967023 0.1874514658 0.4754957197 0.9124089686 0.1836852455
        </DataArray>
      </Points>
      <Cells>
        <DataArray type="Int32" Name="connectivity" format="ascii">
 0 1 2 3 4 5 6 7 8 9 10 11 12 13 14 15 16 17 18 19 20 21 22 23 24 25 26 27 28 29 30 31 32 33 34 35 36 37 38 39 40 41 42 43 44 45 46 47 48 49 50 51 52 53 54 55 56 57 58 59 60 61 62 63 64 65 66 67 68 69 70 71 72 73 74 75 76 77 78 79 80 81 82 83 84 85 86 87 88 89 90 91 92 93 94 95 96 97 98 99 100 101 102 103 104 105 106 107 108 109 110 111 112 113 114 115 116 117 118 119 120 121 122 123 124 125 126 127 128 129 130 131 132 133 134 135 136 137 138 139 140 141 142 143 144 145 146 147 148 149 150 151 152 153 154 155 156 157 158 159 160 161 162 163 164 165 166 167 168 169 170 171 172 173 174 175 176 177 178 179 180 181 182 183 184 185 186 187 188 189 190 191 192 193 194 195 196 197 198 199 200 201 202 203 204 205 206 207 208 209 210 211 212 213 214 215 216 217 218 219 220 221 222 223 224 225 226 227 228 229 230 231 232 233 234 235 236 237 238 239 240 241 242 243 244 245 246 247 248 249 250 251 252 253 254 255 256 257 258 259 260 261 262 263 264 265 266 267 268 269 270 271 272 273 274 275 276 277 278 279 280 281 282 283 284 285 286 287 288 289 290 291 292 293 294 295 296 297 298 299 300 301 302 303 304 305 306 307 308 309 310 311 312 313 314 315 316 317 318 319 320 321 322 323 324 325 326 327 328 329 330 331 332 333 334 335 336 337 338 339 340 341 342 343 344 345 346 347 348 349 350 351 352
        </DataArray>
        <DataArray type="Int32" Name="offsets" format="ascii">
 1 2 3 4 5 6 7 8 9 10 11 12 13 14 15 16 17 18 19 20 21 22 23 24 25 26 27 28 29 30 31 32 33 34 35 36 37 38 39 40 41 42 43 44 45 46 47 48 49 50 51 52 53 54 55 56 57 58 59 60 61 62 63 64 65 66 67 68 69 70 71 72 73 74 75 76 77 78 79 80 81 82 83 84 85 86 87 88 89 90 91 92 93 94 95 96 97 98 99 100 101 102 103 104 105 106 107 108 109 110 111 112 113 114 115 116 117 118 119 120 121 122 123 124 125 126 127 128 129 130 131 132 133 134 135 136 137 138 139 140 141 142 143 144 145 146 147 148 149 150 151 152 153 154 155 156 157 158 159 160 161 162 163 164 165 166 167 168 169 170 171 172 173 174 175 176 177 178 179 180 181 182 183 184 185 186 187 188 189 190 191 192 193 194 195 196 197 198 199 200 201 202 203 204 205 206 207 208 209 210 211 212 213 214 215 216 217 218 219 220 221 222 223 224 225 226 227 228 229 230 231 232 233 234 235 236 237 238 239 240 241 242 243 244 245 246 247 248 249 250 251 252 253 254 255 256 257 258 259 260 261 262 263 264 265 266 267 268 269 270 271 272 273 274 275 276 277 278 279 280 281 282 283 284 285 286 287 288 289 290 291 292 293 294 295 296 297 298 299 300 301 302 303 304 305 306 307 308 309 310 311 312 313 314 315 316 317 318 319 320 321 322 323 324 325 326 327 328 329 330 331 332 333 334 335 336 337 338 339 340 341 342 343 344 345 346 347 348 349 350 351 352 353
        </DataArray>
        <DataArray type="UInt8" Name="types" format="ascii">
 1 1 1 1 1 1 1 1 1 1 1 1 1 1 1 1 1 1 1 1 1 1 1 1 1 1 1 1 1 1 1 1 1 1 1 1 1 1 1 1 1 1 1 1 1 1 1 1 1 1 1 1 1 1 1 1 1 1 1 1 1 1 1 1 1 1 1 1 1 1 1 1 1 1 1 1 1 1 1 1 1 1 1 1 1 1 1 1 1 1 1 1 1 1 1 1 1 1 1 1 1 1 1 1 1 1 1 1 1 1 1 1 1 1 1 1 1 1 1 1 1 1 1 1 1 1 1 1 1 1 1 1 1 1 1 1 1 1 1 1 1 1 1 1 1 1 1 1 1 1 1 1 1 1 1 1 1 1 1 1 1 1 1 1 1 1 1 1 1 1 1 1 1 1 1 1 1 1 1 1 1 1 1 1 1 1 1 1 1 1 1 1 1 1 1 1 1 1 1 1 1 1 1 1 1 1 1 1 1 1 1 1 1 1 1 1 1 1 1 1 1 1 1 1 1 1 1 1 1 1 1 1 1 1 1 1 1 1 1 1 1 1 1 1 1 1 1 1 1 1 1 1 1 1 1 1 1 1 1 1 1 1 1 1 1 1 1 1 1 1 1 1 1 1 1 1 1 1 1 1 1 1 1 1 1 1 1 1 1 1 1 1 1 1 1 1 1 1 1 1 1 1 1 1 1 1 1 1 1 1 1 1 1 1 1 1 1 1 1 1 1 1 1 1 1 1 1 1 1 1 1 1 1 1 1 1 1 1 1 1 1 1 1 1 1 1 1 1 1 1 1 1 1
        </DataArray>
      </Cells>
      <PointData Scalars="overlap">
        <DataArray type="Float32" Name="overlap" format="ascii">
 0.0002019279 0.0000014156 0.0000208893 0.0001775715 0.0000093657 0.0000760289 0.0000416610 0.0000023165 0.0000537580 0.0002462666 0.0002484525 0.0000012954 0.0001527099 0.0000631351 0.0000694876 0.0004800190 0.0000206803 0.0002369040 0.0000863342 0.0001392257 0.0000299463 0.0000526404 0.0000206998 0.0000376798 0.0001364172 0.0000551266 0.0002062607 0.0001199442 0.0000213777 0.0000314256 0.0000186529 0.0000956019 0.0002709216 0.0001898585 0.0000362024 0.0000594650 0.0000836221 0.0001196076 0.0001833951 0.0000354781 0.0000047499 0.0001200526 0.0000314267 0.0000242238 0.0000296803 0.0001495623 0.0000388431 0.0000940099 0.0002119516 0.0000501077 0.0000377569 0.0000273603 0.0002613906 0.0001254047 0.0000172491 0.0001011441 0.0000609554 0.0000518473 0.0003078961 0.0000816201 0.0001061292 0.0001147904 0.0000069896 0.0000177320 0.0000353979 0.0000472059 0.0000069708 0.0000887327 0.0000289866 0.0000175664 0.0001621107 0.0000078410 0.0000156056 0.0002736119 0.0001224447 0.0000150215 0.0000721783 0.0000115968 0.0000295524 0.0000097562 0.0000046339 0.0000261389 0.0000292081 0.0000110056 0.0000310678 0.0000122878 0.0000876207 0.0000967210 0.0000679929 0.0000159548 0.0000129492 0.0000369059 0.0000326862 0.0000032735 0.0000047727 0.0000752322 0.0000376435 0.0000509603 0.0000540214 0.0000328778 0.0000784028 0.0000597213 0.0000945360 0.0000358182 0.0000475006 0.0000155123 0.0001046924 0.0000042285 0.0000107303 0.0001189393 0.0001341899 0.0001241871 0.0000844988 0.0001303647 0.0000194181 0.0000297394 0.0000052703 0.0000543491 0.0000123373 0.0000093217 0.0000423383 0.0000080146 0.0000438787 0.0001072284 0.0000419446 0.0000179858 0.0000109736 0.0000235189 0.0000262045 0.0000009153 0.0000343950 0.0000702375 0.0000251212 0.0000375709 0.0000124675 0.0000184077 0.0000521109 0.0000107411 0.0000126648 0.0001664879 0.0000182441 0.0000300023 0.0000662079 0.0001900948 0.0000133186 0.0001228543 0.0001807917 0.0000292231 0.0001643836 0.0000311630 0.0002815818 0.0000085849 0.0000023494 0.0000104766 0.0000541843 0.0000144749 0.0000485761 0.0000251934 0.0000144876 0.0000708913 0.0000591122 0.0000335974 0.0000510832 0.0000626819 0.0000251250 0.0000436907 0.0000179985 0.0000147562 0.0000524672 0.0000149566 0.0000541785 0.0000216237 0.0000354134 0.0000169182 0.0000240642 0.0000340509 0.0000113549 0.0000244006 0.0000102937 0.0000301997 0.0000007175 0.0000161928 0.0000141648 0.0000508612 0.0000371261 0.0000102336 0.0000598902 0.0000340907 0.0000511226 0.0000150192 0.0000910634 0.0002406685 0.0000614995 0.0000218593 0.0000101389 0.0000039748 0.0000246687 0.0000273438 0.0000300724 0.0000741119 0.0000167596 0.0000598128 0.0004233647 0.0000927985 0.0000268240 0.0000464973 0.0000377866 0.0000038197 0.0000028366 0.0000147484 0.0000004128 0.0000526819 0.0000689954 0.0000273878 0.0000215516 0.0000535618 0.0001018988 0.0003341747 0.0003152522 0.0000313930 0.0000292688 0.0001401306 0.0001364822 0.0000286814 0.0000344894 0.0000107486 0.0000307761 0.0000100250 0.0000340382 0.0000224352 0.0000038979 0.0000193842 0.0000095231 0.0000056826 0.0000321554 0.0000333776 0.0000271055 0.0000132780 0.0000154973 0.0000194638 0.0000107923 0.0000168903 0.0000352923 0.0000235431 0.0000297138 0.0000387519 0.0000007249 0.0000363082 0.0000075063 0.0000022761 0.0000469911 0.0001975903 0.0000770779 0.0000838487 0.0000698734 0.0000153474 0.0000835230 0.0000239452 0.0001320832 0.0000218872 0.0000272450 0.0000179298 0.0000368279 0.0000541421 0.0000756241 0.0000084959 0.0000060882 0.0000569506 0.0000245826 0.0000069155 0.0000247160 0.0000111562 0.0000114159 0.0000703369 0.0001405683 0.0000177662 0.0000281518 0.0000127228 0.0000203606 0.0000187852 0.0000833641 0.0000504103 0.0000638888 0.0001017005 0.0000067797 0.0000471303 0.0000164724 0.0000336620 0.0000230386 0.0000133132 0.0000439659 0.0000144215 0.0000274767 0.0000414903 0.0000222517 0.0001321634 0.0000005838 0.0000205680 0.0000558642 0.0000797997 0.0000194885 0.0000125989 0.0000064339 0.0000513839 0.0000571167 0.0000309130 0.0000304242 0.0000517374 0.0000391237 0.0000208762 0.0000195095 0.0000051435 0.0000106968 0.0000012076 0.0000510795 0.0000217544 0.0000118847 0.0000266567 0.0000259523 0.0000041126 0.0000595077 0.0000444794 0.0000204322 0.0000140170 0.0000420994 0.0000122606 0.0000054164 0.0000311563 0.0000314995 0.0000013242 0.0000460357 0.0000171851 0.0000053099 0.0000195018 0.0000059284 0.0000155871 0.0000080047 0.0000076296 0.0000000498 0.0000213405 0.0000576934 0.0000445973 0.0000260503 0.0000422089 0.0000260945 0.0000072352 0.0000128497 0.0000730099 0.0000250517 0.0000319792 0.0000251757 0.0000304907 0.0001329506
        </DataArray>
        <DataArray type="Float32" Name="contact normal" NumberOfComponents="3" format="ascii">