<?xml version="1.0"?>
<VTKFile type="UnstructuredGrid" version="0.1" byte_order="LittleEndian">
  <UnstructuredGrid>
    <FieldData>
      <DataArray type="Float32" Name="TIME"  NumberOfTuples="1" format="ascii"> 0.8500000000 </DataArray>
      <DataArray type="Int32"   Name="STEP"  NumberOfTuples="1" format="ascii"> 85000 </DataArray>
    </FieldData>
    <Piece NumberOfPoints="105" NumberOfCells="105">
      <Points>
        <DataArray type="Float32" NumberOfComponents="3" format="ascii">
 0.4305282935 0.2133916540 0.0925990446 0.4309527058 0.2232087184 0.0810601413 0.4875649221 0.1445767297 0.1851817596 0.5475414850 0.3693529422 0.2074264869 0.8461937118 0.2166773815 0.1164463585 0.8169913278 0.3839618741 0.0443765880 0.8060614111 0.3902024638 0.2256692501 0.7402000423 0.4256354564 0.6099304696 0.7455999459 0.4196691368 0.6083401478 0.7523656279 0.4251529422 0.6040594638 0.7507761032 0.4132900536 0.6066630982 0.8580398437 0.6218436484 0.5366063115 0.8788226722 0.6357820606 0.5317632098 0.2550514805 0.7912078305 0.0489115916 0.0839905453 0.9030035122 0.1015393115 0.1580357188 0.7195935468 0.0836593397 0.1651793397 0.7204315519 0.1434175952 0.1758503846 0.7189577581 0.1474173331 0.6473480195 0.7389344235 0.1638217804 0.5598366159 0.8556232990 0.1514279910 0.1393331799 0.6592855166 0.2442418460 0.1631570542 0.6602745296 0.2426332505 0.4454867075 0.9104662345 0.2810641290 0.4313871688 0.1704562931 0.3098452297 0.4404220299 0.1714856061 0.3138852977 0.4399214058 0.1804904707 0.3099328003 0.4491481083 0.1814862794 0.3139292753 0.7800495306 0.3800410041 0.3521552027 0.5738586710 0.3299791826 0.3333765711 0.2083483954 0.4378966904 0.0532755247 0.1969417831 0.4337649083 0.0570568056 0.1127782080 0.4479422146 0.1159350750 0.1026400393 0.4744294320 0.1301541082 0.1119152338 0.5994710376 0.0744281411 0.1174324384 0.6045583544 0.0758495101 0.1105640817 0.6090726565 0.0786744771 0.2497770413 0.3050262981 0.2250754116 0.2448310353 0.2951697706 0.2253368906 0.2558376358 0.3074579335 0.2261729436 0.2385612513 0.2881641396 0.2248670759 0.2510478279 0.2959260446 0.2266652830 0.2305007728 0.2833400330 0.2236401241 0.2617648862 0.3118291150 0.2269558821 0.2678524207 0.3185566730 0.2274374914 0.2744781992 0.3284640155 0.2276013077 0.2748298909 0.3153041235 0.2294934572 0.2820784367 0.3267804917 0.2296590310 0.3537218944 0.1837009256 0.3596706164 0.3405646814 0.1824449919 0.3571719312 0.2504670077 0.2287686993 0.5315529399 0.7970014775 0.8144138913 0.4592625306 0.5427455008 0.5155866365 0.2032963843 0.6144987944 0.5462679892 0.0837218224 0.8921161307 0.6356711603 0.0950615323 0.4840258553 0.7330098705 0.0308953534 0.3168393819 0.0814734945 0.1156252568 0.3598374820 0.1640803563 0.0980315616 0.3630086693 0.1619976651 0.1001448236 0.3654254715 0.1655076264 0.1031365828 0.3309465572 0.2043717209 0.1606467778 0.3389193549 0.2101494347 0.1644448459 0.4531397941 0.4686044278 0.1822967747 0.0889970931 0.9040200825 0.5019591323 0.0865331990 0.9009374021 0.5064854994 0.0784931999 0.9004704252 0.5037212983 0.0740381574 0.8967366662 0.5081148211 0.2559217673 0.3185253122 0.1149161776 0.2576639142 0.3239771144 0.1154928984 0.2627984055 0.3189963653 0.1152868233 0.2588838801 0.3294451691 0.1159594883 0.2642111291 0.3245437543 0.1157787805 0.3483791689 0.2672626393 0.0569720689 0.5183160380 0.0562703978 0.5073429597 0.5174571681 0.0495829711 0.5072631791 0.5239348572 0.0539549184 0.5012399509 0.5173343116 0.0421339017 0.5064644294 0.5237477485 0.0465061956 0.5007503768 0.7591318869 0.0908871343 0.1281618499 0.7543964662 0.0894461711 0.1248500285 0.7584124381 0.0847505978 0.1223588210 0.7534962550 0.0825787480 0.1184608414 0.5466324235 0.9325245179 0.2937159459 0.4205282628 0.9103409443 0.0786155729 0.4173445643 0.9163785195 0.0814845850 0.3582472232 0.8968736130 0.1283281721 0.3575678869 0.9055062310 0.1305568845 0.3512064357 0.9086662831 0.1289672081 0.9324093164 0.1558538654 0.2055791433 0.6561251574 0.8737161856 0.0713724078 0.1901279806 0.7284629483 0.4915365523 0.1829761363 0.7292034681 0.4920546744 0.1922313404 0.7155077951 0.4942664649 0.1840805920 0.7163279083 0.4949211416 0.2949366689 0.8664873994 0.1392031741 0.3994605639 0.9302629073 0.1863934060 0.1638412307 0.1211012493 0.0295558518 0.1046283604 0.2121086717 0.0765506751 0.8075737076 0.8297480997 0.3924685772 0.1131401267 0.2011385245 0.1096703458 0.9148244746 0.0861503990 0.0765966940 0.9074117090 0.0974114817 0.0847911675 0.9144184376 0.1005333864 0.0890363537 0.9114595975 0.1070909131 0.0941424974 0.9108485220 0.1120037201 0.0983219145 0.9123976392 0.1158243749 0.1020075602
        </DataArray>
      </Points>
      <Cells>
        <DataArray type="Int32" Name="connectivity" format="ascii">
 0 1 2 3 4 5 6 7 8 9 10 11 12 13 14 15 16 17 18 19 20 21 22 23 24 25 26 27 28 29 30 31 32 33 34 35 36 37 38 39 40 41 42 43 44 45 46 47 48 49 50 51 52 53 54 55 56 57 58 59 60 61 62 63 64 65 66 67 68 69 70 71 72 73 74 75 76 77 78 79 80 81 82 83 84 85 86 87 88 89 90 91 92 93 94 95 96 97 98 99 100 101 102 103 104
        </DataArray>
        <DataArray type="Int32" Name="offsets" format="ascii">
 1 2 3 4 5 6 7 8 9 10 11 12 13 14 15 16 17 18 19 20 21 22 23 24 25 26 27 28 29 30 31 32 33 34 35 36 37 38 39 40 41 42 43 44 45 46 47 48 49 50 51 52 53 54 55 56 57 58 59 60 61 62 63 64 65 66 67 68 69 70 71 72 73 74 75 76 77 78 79 80 81 82 83 84 85 86 87 88 89 90 91 92 93 94 95 96 97 98 99 100 101 102 103 104 105
        </DataArray>
        <DataArray type="UInt8" Name="types" format="ascii">
 1 1 1 1 1 1 1 1 1 1 1 1 1 1 1 1 1 1 1 1 1 1 1 1 1 1 1 1 1 1 1 1 1 1 1 1 1 1 1 1 1 1 1 1 1 1 1 1 1 1 1 1 1 1 1 1 1 1 1 1 1 1 1 1 1 1 1 1 1 1 1 1 1 1 1 1 1 1 1 1 1 1 1 1 1 1 1 1 1 1 1 1 1 1 1 1 1 1 1 1 1 1 1 1 1
        </DataArray>
      </Cells>
      <PointData Scalars="overlap">
        <DataArray type="Float32" Name="overlap" format="ascii">
 0.0002430064 0.0001270983 0.0004765150 0.0003996636 0.0000860958 0.0001499151 0.0000889329 0.0004427550 0.0005713889 0.0000555132 0.0001260984 0.0002163393 0.0001338758 0.0000290878 0.0000922246 0.0000394754 0.0002805614 0.0004041948 0.0000081964 0.0000535129 0.0002692825 0.0000025238 0.0002049175 0.0000016703 0.0001326547 0.0003315097 0.0000861912 0.0003661725 0.0001536105 0.0002140526 0.0000574212 0.0000414920 0.0000084582 0.0000132902 0.0001791181 0.0001095643 0.0000384282 0.0000695876 0.0000874391 0.0000486800 0.0000026868 0.0000035727 0.0001120190 0.0001063308 0.0000372423 0.0000317936 0.0001606407 0.0000007484 0.0000102117 0.0001009079 0.0000945834 0.0000649985 0.0000870627 0.0000451990 0.0000541488 0.0000516964 0.0000487345 0.0000961194 0.0000347641 0.0000362658 0.0000982623 0.0002531604 0.0002918130 0.0002890360 0.0014514008 0.0007889551 0.0001334819 0.0002047891 0.0001974247 0.0000302375 0.0002211944 0.0002121582 0.0000766673 0.0004282205 0.0007245718 0.0001892985 0.0009386917 0.0000304337 0.0001595240 0.0001432331 0.0000138265 0.0001994012 0.0000489366 0.0000665224 0.0002178447 0.0001224507 0.0001764565 0.0000263463 0.0000907868 0.0001253010 0.0001345637 0.0000135419 0.0001610826 0.0001344192 0.0003059315 0.0000137663 0.0000463022 0.0005817400 0.0001802721 0.0000880608 0.0001222081 0.0001230487 0.0001144315 0.0000837671 0.0000445926
        </DataArray>
        <DataArray type="Float32" Name="contact normal" NumberOfComponents="3" format="ascii">
 0.9617245534 -0.2499055253 -0.1123971170 0.9611670871 -0.2219602895 -0.1639861594 0.0698515291 0.2135156181 -0.9744392463 0.0794572624 -0.0037606444 -0.9968311798 -0.8907093601 0.4298257265 0.1479414774 -0.1055235036 -0.4442667254 0.8896582866 -0.0088406165 -0.0028384473 -0.9999568924 0.2128800133 -0.0450609797 0.9760387329 0.2883954650 -0.0605039150 0.9555978924 0.4108907838 0.1189271012 0.9038944122 0.2212007963 -0.1726331151 0.9598270757 0.2392112376 -0.3717977361 0.8969640055 0.4952368082 -0.5533829273 0.6697072790 -0.7077491958 -0.5083206436 0.4906130849 0.0072490561 -0.9592033963 0.2826239476 0.4107817311 0.8512016708 0.3266712185 0.3284612688 0.6507149116 -0.6846044834 0.3024189247 0.6853793085 -0.6624182950 -0.5231186730 0.6418099746 0.5607377377 0.5537165265 -0.8327052024 -0.0002326309 0.0483280720 -0.3683792978 0.9284185965 0.1010107894 0.2883273812 0.9521891313 -0.1524563283 -0.6606260006 0.7350716668 0.3190974088 -0.2733931515 -0.9074321068 0.3330178717 -0.2737746527 -0.9023006908 0.3226026395 -0.2583072520 -0.9106068859 0.3321249261 -0.2717015100 -0.9032559565 0.1273780661 -0.3159950687 0.9401712316 0.3942079404 -0.5746844712 0.7171735203 -0.2023646673 0.9571702858 0.2070593765 -0.5934107834 0.7285479835 0.3421717083 0.4632188416 0.5501631098 -0.6948013079 0.4631532662 0.5501872932 -0.6948258735 0.1623724613 -0.4982101696 0.8517169781 0.1439531153 -0.4415935105 0.8855917073 0.1398221282 -0.4288964000 0.8924671706 -0.2396595158 0.1493250501 0.9593046158 -0.2391632238 0.1487285233 0.9595211195 -0.2394019883 0.1490156141 0.9594170286 -0.2390274248 0.1485654034 0.9595802265 -0.1964035976 0.0976911073 0.9756444406 -0.2392244840 0.1488021068 0.9594944394 -0.2393269533 0.1489351581 0.9594482415 -0.2394565664 0.1490919948 0.9593915415 -0.2397913316 0.1497927601 0.9591987523 -0.1963419503 0.0977391023 0.9756520417 -0.2383097796 0.1502227894 0.9595006839 0.2106963088 -0.0986277761 -0.9725634310 0.1988338781 -0.1011465180 -0.9747997081 0.1377325158 0.9030847464 -0.4067772056 -0.7117603639 -0.1502864226 0.6861568156 0.3451472837 0.8861229446 -0.3092886670 -0.0022205199 -0.0042661873 0.9999884344 -0.0782960519 0.3634989045 0.9282985913 -0.5714663430 -0.7798650468 -0.2554148147 0.2122856004 0.9695236127 0.1223061251 -0.6660419791 -0.2078596248 0.7163675442 -0.6569790866 -0.2227452423 0.7202520647 -0.6457835339 -0.1916909071 0.7390657775 0.5065201091 -0.4870067098 -0.7115207964 0.7650547265 -0.6315531038 -0.1258250470 0.3599199842 -0.4032324234 0.8413448863 -0.1417884583 0.9325600314 0.3320057542 -0.1563344254 0.8782965519 0.4518348307 -0.2986143132 0.8620561314 0.4094981298 -0.3191385670 0.8388260595 0.4410458219 0.0459948301 0.0770952111 -0.9959622503 0.0437099324 0.0796970923 -0.9958603392 0.0826685117 0.0351555127 -0.9959568299 0.0416269164 0.0821199274 -0.9957527391 0.0476022821 0.0753020328 -0.9960239086 -0.9597748453 0.2558358431 0.1156731070 -0.7380299822 0.1341729205 -0.6612937114 -0.7528685991 0.1244974413 -0.6462888360 -0.7189055283 0.1458997393 -0.6796235042 -0.7473432577 0.0510873232 -0.6624712376 -0.7050340129 0.0554469200 -0.7070026023 -0.1686799808 -0.6532506321 0.7381129153 -0.1863507088 -0.6512496323 0.7356271677 -0.1703205595 -0.6530763343 0.7378903771 -0.1886183039 -0.6522895046 0.7341263772 0.8288552654 -0.5492540425 0.1063905347 -0.7250334953 -0.1612072131 -0.6695809624 -0.8919873061 -0.0967116811 -0.4415942669 0.3503525449 0.2577624338 -0.9004507882 0.3505841457 0.2577825782 -0.9003548740 0.3441896588 0.2572463896 -0.9029716351 -0.0116557770 -0.6463598550 0.7629436943 -0.9481313294 0.0461409298 0.3145123157 -0.0282771684 0.2239106287 0.9741993801 -0.0558684986 0.2233434836 0.9731374000 -0.0213184385 0.2216363834 0.9748963215 -0.0454723945 0.2214970902 0.9741002517 0.6603629798 0.1738294514 -0.7305505162 -0.3348732006 -0.1633916369 -0.9279887459 -0.2342305396 -0.9434516217 -0.2345955923 0.2823855592 0.3712006695 -0.8845724724 -0.2747116238 -0.2018320490 -0.9401049663 0.9192842412 0.2375713074 0.3138094292 -0.1622327609 -0.6486391371 0.7436046000 -0.2137448863 -0.6408591589 0.7373009304 -0.1622624322 -0.6483890842 0.7438161725 -0.1623309477 -0.6483794684 0.7438096049 -0.1623476861 -0.6483773131 0.7438078305 -0.1623173426 -0.6483811989 0.7438110655
        </DataArray>
        <DataArray type="Float32" Name="contact force" NumberOfComponents="3" format="ascii">
 132.3204540810 -65.6659829023 -19.0195714408 71.6626801844 -29.8075504351 -4.6533331386 -109.3495837622 98.2814911728 -279.7122452853 -7.3137156172 1.2873524851 -241.1482782785 -42.8223504292 21.0095305278 30.3147015672 -13.9162344605 6.5104934976 102.7056684054 18.8806665843 -9.6088376364 -53.5017175684 88.8348764670 -95.3666148988 248.3963900931 124.5679149667 -116.8492290205 313.7707843760 21.2516380162 -13.6701064283 28.9873918186 30.9069865744 -53.0080085207 62.1689316228 -9.2016710869 -109.6810909067 101.7047800470 21.5332158122 -82.9077654463 35.5105855184 -6.9190792940 -13.1565425653 11.9604892746 -14.9508922545 -61.0962731597 -11.1830608177 18.2120569691 13.0060993532 15.7137518809 47.4898671679 88.2404762783 -139.2320508720 64.9661398818 132.8586376720 -198.9849921499 -1.7346301235 5.2949519285 1.0915118836 21.6888730230 -24.1411030652 17.9144049234 -30.8630108081 18.5835756673 183.0067376976 0.4535879523 1.2124164261 1.1750863181 4.6186399307 -118.6903538417 61.5514335461 -0.1044735931 0.0015558370 -1.1415913783 -7.3370415768 2.1563402206 -91.5731883873 -1.7557547676 -3.6822579621 -218.0096654362 -5.0666305378 1.1094209298 -59.4503585900 26.9377540289 50.6910548115 247.0723805713 14.8967498082 -21.4210662625 103.1598718031 -8.8904055983 122.0807680831 47.2346637902 -22.7813473420 23.0321210637 12.1401714612 -0.9288515184 15.9537392748 -23.8172932770 -0.1812962779 3.1614913529 -4.9213643790 4.8561055714 -1.2136869860 7.7267210077 19.9719875069 8.1784139559 122.1865483637 19.3863751968 5.3331472525 73.1850768727 1.1961857683 -7.4706312673 25.4967379708 2.5407782762 -13.4193041988 46.2272516266 1.6911528941 -17.7413202372 57.8601947337 2.1019259185 -9.1719506270 32.3819486271 0.1420945101 -0.6067697485 1.7417108044 0.0971988509 -0.7108387173 2.3685817056 3.1308801355 -22.1357881681 74.2692357196 -0.4478486916 -22.3039253224 69.8532106237 -0.6805892027 -5.2841676661 23.9509200012 1.7144977734 -6.5908080356 20.5575240751 -7.8840471469 -21.7786907188 101.9043115228 -0.1531418827 0.0038786878 -0.4952764114 -0.1213911943 -0.5391811819 -6.2542171510 0.0631044085 69.6570945742 5.8268746777 -30.9878792801 -39.7581636405 41.8548720245 8.1452942155 43.5801781866 7.8556110619 -8.9679390000 -11.6925657949 52.1684347007 11.2680631386 2.7676526291 29.0807259297 -14.0514087894 -22.7476066826 -26.3074585633 -3.7242539018 32.1071222265 5.5582043476 -30.6548386092 4.1453407015 13.5195529556 -61.8816757516 2.6204075235 24.4363732757 -21.7146729789 2.8970423395 10.0002016364 6.1302778318 -21.4628078848 -11.5272042800 26.9738766496 -58.1926734825 -12.4706691199 84.2521225430 -62.3392854939 114.6200635595 -31.8868477231 128.5281756009 152.7274072507 -30.3772139658 107.3619383024 164.6110132631 -274.1551986540 601.7935339934 659.8175107726 -148.2454584020 326.9795572622 344.1439882585 1.2906654098 37.7650068271 -77.4309368933 15.5315205832 68.3737400567 -117.2307058397 -3.7765579123 14.5177629680 -118.7366993628 2.6498876157 11.7435610063 -17.1405975327 1.4858761169 38.8362392545 -130.2392911805 -138.1584724851 -13.1579936265 -16.7700389183 -44.2613872398 -17.3387584854 -23.6816780177 -216.4775798261 -92.8077480095 -163.2512575383 -337.5592708425 -105.8520049266 -305.3362008096 -104.8262667199 -54.0070663618 -57.3564195698 -419.6110267668 -150.5668111996 -389.9892826291 -0.3988827467 -13.5961977097 12.6149018309 -6.1238725430 -69.7998335098 66.7676439925 -8.5547523764 -63.2700281886 58.4946768671 -1.2464156708 -5.7173000029 5.9001538846 92.0506685728 -86.9134923421 -41.2963249224 -15.7677508381 -7.2496910018 -25.0322509065 -45.5052803248 -6.6211680272 2.9824711804 65.3210128676 38.9034204948 -108.6051234119 33.8106784276 21.9267703571 -62.1583498107 44.6333862207 27.6886104374 -92.3492435590 -1.5002754438 -17.0940880832 6.2145253865 -42.5426981085 19.2649986240 42.1195532543 27.1435643046 48.2116567466 66.8785336678 27.0169141074 51.8102783592 72.6270777338 1.5790637175 6.0491990477 6.9936712325 33.7187641383 61.4526512753 86.8198472988 43.2562332016 59.3858322778 -57.1674471225 -6.6787055358 -41.9726450281 -188.0027052843 -3.3483138260 -6.3669855052 -6.2600789911 -0.6748540378 23.5879327251 -21.7235541519 -119.5977651564 4.2762113459 -337.2518674776 111.7665548328 31.6826920107 -6.7201899291 0.6278620297 -24.2554751769 50.0336668841 -0.6039651598 -32.4996956998 71.0267158243 1.0132433595 -33.1155301976 70.6113499715 1.1110038321 -30.1539885481 66.2643381580 0.5955831546 -21.7365991960 48.7537671951 0.2754189566 -11.2028672588 26.2654815630
        </DataArray>
        <DataArray type="Float32" Name="sliding spring" NumberOfComponents="3" format="ascii">
 0.0000439039 0.0001623822 0.0000146202 0.0000090830 0.0000715616 -0.0000436227 0.0007184487 -0.0002068637 0.0000061739 0.0001464857 -0.0000121619 0.0000117222 -0.0000177193 0.0000066344 -0.0001259579 0.0000245805 -0.0002581770 -0.0001260098 -0.0001075133 0.0000525410 0.0000008014 -0.0001793481 0.0004633113 0.0000605067 -0.0001427574 0.0005339248 0.0000768892 -0.0000420318 0.0000979518 0.0000062191 -0.0000787286 0.0002219264 0.0000580591 0.0002236230 0.0003412246 0.0000818019 0.0001013718 0.0002136501 0.0001015776 -0.0000301836 0.0000238055 -0.0000188776 0.0000852890 0.0000445498 0.0001490111 -0.0000471256 0.0000397489 -0.0000443137 0.0000433460 0.0001183268 0.0001332660 0.0000465308 0.0001853189 0.0002129855 -0.0000046554 -0.0000118814 0.0000092561 -0.0000217238 -0.0000144177 -0.0000995660 0.0002148409 -0.0004339024 -0.0001833478 -0.0000016702 -0.0000043100 0.0000014823 -0.0001297957 0.0002081447 0.0001601445 0.0000023570 -0.0000015308 0.0000012900 0.0001880160 -0.0001330380 0.0001097584 0.0003662406 -0.0002649809 0.0002049146 0.0001235687 -0.0000842244 0.0000707708 0.0000058203 -0.0006673127 -0.0002250748 0.0001190885 -0.0001752526 -0.0002058925 -0.0000949978 0.0000047228 -0.0001146761 0.0000129818 0.0000114908 -0.0000019524 0.0000692265 -0.0000125407 0.0000362227 0.0000140654 -0.0000020518 0.0000077509 -0.0000197851 -0.0000153284 -0.0000051945 -0.0000250068 -0.0003090937 -0.0001500623 -0.0000566371 -0.0001862676 -0.0000806421 -0.0000373444 0.0000606311 -0.0000187674 -0.0000695914 0.0001090505 -0.0000342490 -0.0000791723 0.0001419955 -0.0000418103 -0.0000504636 0.0000750625 -0.0000241917 -0.0000025484 0.0000042459 -0.0000009382 -0.0000033889 0.0000057212 -0.0000017322 -0.0001067576 0.0001785885 -0.0000543522 -0.0000823840 0.0001767543 -0.0000480305 -0.0000259869 0.0000479519 -0.0000139849 -0.0000303331 0.0000469739 -0.0000108100 -0.0000838073 0.0002014324 -0.0000523521 0.0000013764 -0.0000002676 0.0000003253 0.0000074425 -0.0000004475 0.0000015645 0.0000459771 -0.0000832227 -0.0001691949 -0.0000522476 0.0001734967 -0.0000161968 0.0000295285 -0.0000501234 -0.0001106532 0.0000491775 0.0000637206 0.0000003810 -0.0000743967 0.0000393901 -0.0000216991 -0.0000250840 -0.0000143870 0.0001000512 0.0000572716 -0.0000113035 -0.0000098030 0.0000621071 -0.0000567962 0.0000412642 0.0001332923 -0.0000859249 0.0000950097 0.0000458035 -0.0000383079 0.0000300865 0.0000271741 0.0000603655 -0.0000219729 0.0001007319 0.0001164331 0.0000280686 -0.0001643424 0.0000060544 0.0000732059 0.0000392301 0.0001930651 -0.0005255403 0.0000181414 0.0002497426 -0.0004791838 0.0000783875 0.0008273326 -0.0016844997 -0.0000157008 0.0003894340 -0.0007520265 0.0000132946 -0.0001755029 -0.0000129713 -0.0000564485 -0.0003254504 -0.0000285229 0.0000753836 -0.0000575190 0.0000042268 -0.0000105260 -0.0000569650 -0.0000051379 0.0000268430 -0.0001602356 -0.0000108313 0.0000888002 0.0002540255 0.0001749702 0.0000572874 0.0001306154 -0.0000374338 0.0001280073 0.0006933065 -0.0000155624 0.0001390003 0.0009404495 0.0000548587 0.0001107983 0.0003322751 -0.0000993693 0.0001251405 0.0010099742 -0.0000455844 -0.0000148958 0.0000092649 0.0000047956 -0.0000650699 0.0000414770 0.0000202359 -0.0000337921 0.0000396930 0.0000273307 -0.0000017686 0.0000016999 0.0000010560 0.0000395232 0.0001177797 0.0003001387 -0.0000306703 0.0000139796 0.0000298446 0.0000550167 0.0000153393 -0.0001144890 -0.0001084864 -0.0000289562 -0.0000504995 -0.0000447396 -0.0000165966 -0.0000221727 -0.0000455149 -0.0000025163 -0.0000180660 0.0000073112 0.0000382033 0.0000324772 -0.0000505778 -0.0000930645 -0.0001388189 -0.0001626081 -0.0001743218 0.0000353464 -0.0001751535 -0.0001876551 0.0000330128 -0.0000097349 -0.0000236020 0.0000051529 -0.0002117425 -0.0002224725 0.0000407028 0.0000555725 -0.0002520346 -0.0000097365 -0.0003043903 0.0000665592 0.0000981229 0.0000078534 -0.0000079208 0.0000240131 0.0000473328 -0.0000737527 -0.0000158392 0.0001317296 -0.0004151360 0.0000506327 -0.0000685209 -0.0000332567 0.0002259047 -0.0000511093 -0.0000556462 -0.0000596902 -0.0000837159 -0.0000805068 -0.0000942456 -0.0000721831 -0.0000819695 -0.0000872000 -0.0000680915 -0.0000797947 -0.0000844176 -0.0000486401 -0.0000602834 -0.0000631655 -0.0000256573 -0.0000341386 -0.0000353577
        </DataArray>
      </PointData>
    </Piece>
  </UnstructuredGrid>
</VTKFile>
