<?xml version="1.0"?>
<VTKFile type="UnstructuredGrid" version="0.1" byte_order="LittleEndian">
  <UnstructuredGrid>
    <FieldData>
      <DataArray type="Float32" Name="TIME"  NumberOfTuples="1" format="ascii"> 6.8999999999 </DataArray>
      <DataArray type="Int32"   Name="STEP"  NumberOfTuples="1" format="ascii"> 690000 </DataArray>
    </FieldData>
    <Piece NumberOfPoints="399" NumberOfCells="399">
      <Points>
        <DataArray type="Float32" NumberOfComponents="3" format="ascii">
 0.4248652739 0.2068256771 0.0759431882 0.5299832740 0.1286330405 0.0400908494 0.5050734667 0.1472908506 0.1825918924 0.6403308298 0.1082665495 0.1124597505 0.5396125148 0.3646968650 0.2040010193 0.5528626063 0.3591026645 0.2072270118 0.5678908887 0.4472846168 0.1939273115 0.7522016115 0.1787393422 0.1457377947 0.7585133902 0.1855918496 0.1501548516 0.6781371423 0.4551492940 0.1694662916 0.8496089154 0.2321595796 0.1150671609 0.7816290857 0.3733981988 0.0369727140 0.7953317243 0.3703152292 0.0373492390 0.8168259538 0.3857440038 0.0431750118 0.8042876646 0.3963508800 0.2240358901 0.8177014831 0.3880446071 0.2261943328 0.8970057213 0.3686632848 0.1723159609 0.7489582138 0.3245514519 0.6726920049 0.7715942244 0.2992916873 0.6582665713 0.7860266128 0.3638988703 0.5621543673 0.8677399954 0.6052367294 0.5111383641 0.9118158635 0.5556471891 0.5587204357 0.8933347802 0.6065757738 0.4947007886 0.9262234459 0.5446443807 0.5458341206 0.9417329028 0.3093601622 0.5254694776 0.9349242137 0.3343185814 0.5344059541 0.9466582240 0.4740593112 0.4508205402 0.2426832634 0.7997989584 0.0414069659 0.2550043953 0.8173398220 0.0914574455 0.0745409579 0.9091238671 0.1097907334 0.1543238379 0.7223199195 0.0815084951 0.0388483927 0.8885769613 0.1662308909 0.0554835768 0.8047841444 0.1553464091 0.0622457179 0.7985060407 0.1588806823 0.1716660892 0.7198414309 0.1453822876 0.1846706510 0.8263780489 0.1958310320 0.5696635850 0.7614169402 0.2455279580 0.6836968390 0.7584638723 0.2617673294 0.6518279477 0.7389200719 0.1620811566 0.7064510355 0.8129153373 0.2796414842 0.6573961669 0.7424566041 0.1621264237 0.6559158580 0.7439889654 0.1560631414 0.6050556387 0.8504655621 0.2446685592 0.6094925106 0.8548467027 0.2417820349 0.5207969197 0.7623146081 0.0984627702 0.7326518908 0.8581098775 0.2193666219 0.7273908336 0.8568458661 0.2066720240 0.5647773951 0.8549313923 0.1613297983 0.5655450361 0.8555401031 0.1539491198 0.1730877449 0.4807040496 0.3236717671 0.1676972777 0.4846862656 0.4415939953 0.1372093735 0.6603889919 0.2434475727 0.0843620621 0.6890416435 0.2636714220 0.1610017729 0.6613727808 0.2414233210 0.2576846386 0.4522146898 0.3447880525 0.2908204466 0.4616815329 0.4187233354 0.2909880856 0.5655098885 0.4523301588 0.3086336152 0.4589964569 0.2813336282 0.1182082948 0.7733042026 0.4080898493 0.2713210254 0.7854264396 0.2555513692 0.4240756040 0.5343448238 0.4164836983 0.4308563609 0.5455607932 0.4205683258 0.2460004670 0.8876089536 0.3715553241 0.3711228253 0.8402725072 0.4486942109 0.3884537151 0.8571716073 0.4473817937 0.4440474598 0.9114116294 0.2749317314 0.5616924219 0.7792383868 0.4616584602 0.7554643643 0.3393624916 0.5253691676 0.7491433651 0.3251167898 0.5221879143 0.7310371392 0.1923241797 0.5211103041 0.6605264898 0.0750017988 0.2089068879 0.6490922717 0.1078241227 0.2421730714 0.6082329211 0.1071852858 0.3161808355 0.5368086542 0.0942205760 0.3297721137 0.6497679421 0.8867013585 0.4452708094 0.6558295694 0.9007447467 0.3525089150 0.6572089271 0.9097054157 0.3464138601 0.7437356595 0.9446352638 0.5283425728 0.6975304506 0.9102991725 0.3310051400 0.7118973695 0.2412333490 0.2823346159 0.6923349660 0.1618258364 0.4376725295 0.7639628504 0.3793141705 0.3440307705 0.7707363099 0.3872264751 0.3523745708 0.5690858637 0.3189441592 0.3113901162 0.5335523817 0.2357778594 0.4478725439 0.4819233004 0.2672517137 0.3471253336 0.4709356576 0.3273645923 0.5039602517 0.4582445761 0.3355684760 0.5055520071 0.3861285385 0.4139793561 0.4441346379 0.5795580866 0.5972599340 0.5628813877 0.1272837988 0.2954929133 0.0794087401 0.1210210357 0.2920263493 0.0845424292 0.1781397463 0.3772367149 0.0528340909 0.1491831806 0.4388050881 0.0568122145 0.0950506671 0.4146560148 0.1045549077 0.2077564161 0.4386278080 0.0527658968 0.1964203834 0.4344289409 0.0567132885 0.2718639576 0.5419342068 0.0599528086 0.1116346098 0.4730201709 0.1348037346 0.1123434293 0.4827929957 0.1420340895 0.1047358162 0.4920117670 0.1450392178 0.0995437002 0.5073287264 0.1534462319 0.1196631401 0.6091650522 0.0768636267 0.1243071009 0.6141221386 0.0785443475 0.0731065087 0.6660890254 0.2039464075 0.0764847454 0.6738822824 0.1942229014 0.1368994663 0.3952855571 0.2410311366 0.2422139214 0.3041294897 0.2229849914 0.2365973094 0.2958155174 0.2228491722 0.2487075529 0.3044903484 0.2244125401 0.2293362620 0.2902096686 0.2219687865 0.2433839074 0.2948298050 0.2245379876 0.2197452215 0.2869287032 0.2202327527 0.2548639275 0.3066659906 0.2255152862 0.2368441497 0.2880816567 0.2239876590 0.2496220503 0.2953278971 0.2258882456 0.2609606568 0.3107900897 0.2263366018 0.2673073198 0.3172675905 0.2268952165 0.2743132157 0.3269071095 0.2271861420 0.0603286052 0.3238588483 0.2405528786 0.2818538742 0.3248946211 0.2291700389 0.2734198992 0.3270489478 0.3139753573 0.2819442608 0.3344278857 0.3145364503 0.0744068985 0.2508621278 0.2704874389 0.0724376958 0.1488437828 0.2300766875 0.1130179731 0.0685978839 0.2994121668 0.1289121559 0.0610855390 0.3107427601 0.2422544869 0.1318700318 0.3407272499 0.2508589988 0.1370574226 0.3419972115 0.2667448033 0.1556162395 0.3433602308 0.2741739021 0.1652456839 0.3438921671 0.2824450176 0.1696902028 0.3451598672 0.8679166779 0.1866465890 0.4388069160 0.8336789460 0.1057844980 0.4125787933 0.7587787958 0.1533931738 0.5977283706 0.7548241897 0.1422564127 0.5935152685 0.7470094734 0.1331171234 0.5912820198 0.2973212844 0.2801230220 0.5031618314 0.2898216401 0.2700269386 0.4140877648 0.2535000096 0.3450428138 0.3698647368 0.3102825114 0.3803417147 0.4286209733 0.6312882004 0.7388038600 0.5144365694 0.6934344657 0.6467633272 0.3835480402 0.7179961208 0.8411238831 0.5228713639 0.7601127053 0.7119197918 0.4431579780 0.7150696236 0.7763955901 0.3773373058 0.7224935302 0.7765644839 0.3764738852 0.7217505134 0.7830364059 0.3798920896 0.5481887210 0.5178816081 0.2034166733 0.6016775971 0.5231822821 0.2544422377 0.6024654944 0.5427593604 0.2596858321 0.6200444893 0.5473510120 0.0836205791 0.6262687377 0.5623860624 0.0836989587 0.6399076765 0.5592331606 0.0832590242 0.7413573373 0.6640252496 0.2510475560 0.8187181556 0.4748241918 0.2427192753 0.8265623783 0.4850386347 0.2453617918 0.7524100348 0.6663463708 0.2524264796 0.8342700409 0.4949645218 0.2478057359 0.7588464612 0.7526344770 0.1137503634 0.7644312963 0.6690108918 0.2538326651 0.7782265566 0.6723037078 0.2552961534 0.8026224863 0.7665645726 0.1615344406 0.8794319692 0.6238434360 0.0942666590 0.9217436454 0.5592539745 0.1912949105 0.8981112766 0.6354676029 0.0942531693 0.9265947939 0.6781198897 0.2684895550 0.9125158471 0.7262495992 0.2334574754 0.9396912940 0.6711488542 0.2630045539 0.3658527254 0.5765590995 0.0833472356 0.4803356735 0.7324427935 0.0279608610 0.4430333210 0.6659640336 0.0961074270 0.4495920785 0.6639641214 0.0952670033 0.4523360808 0.6598793445 0.0965934820 0.3894154898 0.1711527455 0.4216740321 0.3343313542 0.0835966691 0.4717571250 0.1711632486 0.1840693304 0.3885513551 0.2163990492 0.1306965253 0.4587593288 0.1403176572 0.0872415509 0.4244185006 0.9285699408 0.4500573502 0.5810557218 0.2542664945 0.1549647806 0.0768239549 0.2905342192 0.1241738059 0.1289609037 0.3212495541 0.0796920209 0.1134336530 0.3626136442 0.1664948393 0.0989913629 0.3618117082 0.1720327991 0.1001077835 0.3650573659 0.1699174472 0.1024755573 0.3680820119 0.1736260895 0.1065979280 0.3291205280 0.2036829349 0.1572354511 0.3370106122 0.2091301349 0.1616359472 0.0617469889 0.1503408765 0.5057992301 0.1851546588 0.1663325694 0.5386185516 0.1499009136 0.2658891789 0.5712991258 0.1483449962 0.2522231925 0.4787904297 0.0408595832 0.9382736568 0.1632802097 0.1579123586 0.9508839509 0.1726202186 0.1685814296 0.9468863493 0.1683300611 0.4623077043 0.4848422061 0.1661080595 0.4577480540 0.4752243562 0.1662387361 0.5258198190 0.3954508365 0.2669791860 0.8807308618 0.5610013862 0.0484160227 0.8724852025 0.5657499179 0.0455653482 0.8788725484 0.5639579795 0.0436099464 0.9528860925 0.5564842327 0.0824626896 0.0848633948 0.9509151590 0.2972593794 0.0909325521 0.9527350532 0.2984104579 0.1709239611 0.9291524535 0.3642662948 0.7712012996 0.0774327496 0.2849989553 0.7320445420 0.0975393285 0.3049635261 0.7245536465 0.0995463568 0.3031240192 0.8351613906 0.1252680011 0.3223784665 0.8416795572 0.1387116681 0.3278999312 0.7707170755 0.1908865944 0.2038471726 0.7747342529 0.1947195932 0.2066776786 0.3426309495 0.1902170249 0.5344599979 0.3550261342 0.1906340107 0.5362038075 0.4140021054 0.2829444455 0.5664160969 0.9549030488 0.6061792275 0.3610204117 0.8663850103 0.6117989440 0.4001128266 0.8999183520 0.4790676552 0.3659225081 0.9022712671 0.4738060838 0.3628365445 0.8960235272 0.4718838955 0.3635570842 0.9027219685 0.3807537323 0.2926236520 0.8058005311 0.0773942375 0.5900182150 0.3432520166 0.9113998875 0.0686960745 0.3482573533 0.9041871040 0.0728550812 0.2973778475 0.8399046578 0.0897858741 0.2988442465 0.8343476734 0.0890977748 0.8006528720 0.6605806607 0.3595351157 0.6844031157 0.6155011511 0.3399599071 0.6751681527 0.6201206999 0.3384223732 0.1505763435 0.9040904054 0.4534404190 0.1568616921 0.9069193929 0.4543829097 0.1183446592 0.9135207564 0.2299883197 0.1206159560 0.9131854822 0.2376249002 0.2538572613 0.3186013393 0.1147669580 0.2556200543 0.3240396915 0.1154071382 0.2607360836 0.3190398724 0.1151265144 0.2621687144 0.3245780571 0.1156877650 0.2673282702 0.3190372692 0.1154436976 0.2631776844 0.3301142244 0.1161665575 0.2685362238 0.3247198595 0.1158622638 0.3468116254 0.2670684904 0.0577854883 0.2798042292 0.4118690117 0.0597690756 0.1971447480 0.4195476271
[...]
      <PointData Scalars="overlap">
        <DataArray type="Float32" Name="overlap" format="ascii">
 0.0002252243 0.0000175375 0.0002056592 0.0000271514 0.0000864753 0.0000330040 0.0000067336 0.0000515958 0.0002477800 0.0002506532 0.0001090747 0.0000483523 0.0000726469 0.0004920491 0.0000267002 0.0002309300 0.0000930508 0.0000060973 0.0000060156 0.0001283182 0.0000223300 0.0000486431 0.0000316033 0.0000307678 0.0000235465 0.0000097863 0.0001204656 0.0000832543 0.0001926435 0.0001203028 0.0000298733 0.0000287876 0.0000077518 0.0000869393 0.0002828616 0.0000290092 0.0001985605 0.0000834248 0.0000474293 0.0000985731 0.0001044788 0.0001689472 0.0000244304 0.0000128921 0.0001825220 0.0000522027 0.0000013603 0.0000530598 0.0001661433 0.0000599945 0.0000788421 0.0002212761 0.0000634941 0.0000339089 0.0000157494 0.0000085591 0.0000548985 0.0002887901 0.0001530121 0.0000507062 0.0001167755 0.0000162769 0.0000951094 0.0000947821 0.0000267135 0.0003199852 0.0000190261 0.0000904511 0.0000912502 0.0000192928 0.0000291813 0.0000604804 0.0000070771 0.0000864478 0.0000180528 0.0000016356 0.0000080365 0.0000089383 0.0000386260 0.0001853527 0.0000087281 0.0000307432 0.0002615085 0.0001143207 0.0000378415 0.0001249353 0.0000100386 0.0000136293 0.0000040247 0.0000155873 0.0000166593 0.0000397119 0.0000069897 0.0000393230 0.0000274117 0.0001009586 0.0001226965 0.0000460482 0.0000055737 0.0000080563 0.0000274756 0.0000243735 0.0000817350 0.0000440082 0.0000531428 0.0000487004 0.0000603341 0.0000762041 0.0000622150 0.0000973687 0.0000385682 0.0000568950 0.0000139375 0.0001102514 0.0000158288 0.0000253655 0.0001249499 0.0001381668 0.0001231127 0.0000799374 0.0001379609 0.0000154996 0.0000300722 0.0000372042 0.0000322573 0.0000592409 0.0000282900 0.0000085420 0.0000405987 0.0001086561 0.0000464349 0.0000187274 0.0000024292 0.0000394224 0.0000015713 0.0000123785 0.0000048873 0.0000333461 0.0000391364 0.0000602713 0.0000184772 0.0000167198 0.0000083737 0.0000068506 0.0000119883 0.0000224087 0.0000202590 0.0000126388 0.0000104233 0.0000260367 0.0000088113 0.0001698343 0.0000139085 0.0000453609 0.0000111249 0.0000460323 0.0001709298 0.0000241054 0.0001046186 0.0002025764 0.0000361722 0.0000388730 0.0001536793 0.0000026448 0.0000401287 0.0002874383 0.0000075707 0.0000179055 0.0000144325 0.0000428707 0.0000045712 0.0000128487 0.0000078424 0.0000746683 0.0000376779 0.0000589887 0.0000610905 0.0000359886 0.0000598450 0.0000173292 0.0000351363 0.0000001953 0.0000570881 0.0000125004 0.0000176659 0.0000518964 0.0000191823 0.0000531558 0.0000302898 0.0000300441 0.0000205246 0.0000077271 0.0000283339 0.0000114236 0.0000228264 0.0000144569 0.0000043896 0.0000258965 0.0000156901 0.0000057449 0.0000675544 0.0000370363 0.0000019660 0.0000129453 0.0000075871 0.0000005122 0.0000399491 0.0000107303 0.0000494416 0.0000638605 0.0000373103 0.0002481077 0.0000715426 0.0000076609 0.0000103277 0.0000074331 0.0000071335 0.0000117789 0.0000363518 0.0000336046 0.0000537636 0.0000647542 0.0000026768 0.0000082178 0.0000881895 0.0000310061 0.0000607539 0.0000854165 0.0000027264 0.0000074793 0.0000564127 0.0000903340 0.0000005262 0.0000288817 0.0000795420 0.0001167907 0.0003505518 0.0003212110 0.0000394667 0.0000251601 0.0001373511 0.0001621467 0.0000228535 0.0000386634 0.0000069056 0.0000152045 0.0000602888 0.0000174466 0.0000222368 0.0000123142 0.0000312816 0.0000744798 0.0000535305 0.0000057761 0.0000333212 0.0000231386 0.0000207160 0.0000333821 0.0000189166 0.0000229923 0.0000277185 0.0000619196 0.0000030426 0.0000056403 0.0000216191 0.0000017873 0.0000079208 0.0000689996 0.0002009629 0.0001002204 0.0000704547 0.0000618082 0.0000253313 0.0000529333 0.0000843728 0.0000198235 0.0000510924 0.0000226733 0.0001328054 0.0000052211 0.0000218366 0.0000398933 0.0000060183 0.0000130302 0.0000071083 0.0000120439 0.0000693455 0.0000463722 0.0000084349 0.0000061270 0.0000199166 0.0000510103 0.0000429063 0.0000048541 0.0000222883 0.0000263863 0.0000095762 0.0000018167 0.0000133126 0.0000581832 0.0001162275 0.0000070389 0.0000208439 0.0000300473 0.0000082195 0.0000234156 0.0000218163 0.0000726763 0.0000746744 0.0000793609 0.0000092732 0.0000793410 0.0000033174 0.0000341091 0.0000165509 0.0000030888 0.0000093846 0.0000223142 0.0000324170 0.0000314889 0.0000290388 0.0000209636 0.0000060682 0.0000220728 0.0000136191 0.0000218684 0.0000040174 0.0000588289 0.0000080886 0.0000053678 0.0000114641 0.0000608806 0.0000874052 0.0000142644 0.0000077215 0.0000050912 0.0000505114 0.0000601784 0.0000345101 0.0000374931 0.0000593660 0.0000511231 0.0000145082 0.0000060140 0.0000102854 0.0000046402 0.0000061349 0.0000086763 0.0000097826 0.0000055222 0.0000459186 0.0000166698 0.0000076629 0.0000325882 0.0000233665 0.0000007093 0.0000053630 0.0000594584 0.0000460759 0.0000198632 0.0000226263 0.0000418701 0.0000146276 0.0000078763 0.0000069370 0.0000334722 0.0000269973 0.0000106258 0.0000221437 0.0000403128 0.0000195150 0.0000137048 0.0000140858 0.0000065959 0.0000151974 0.0000080088 0.0000100511 0.0000155581 0.0000151767 0.0000045661 0.0000049208 0.0000517397 0.0000115434 0.0000604283 0.0000295375 0.0000313563 0.0000095586 0.0000184069 0.0000045386 0.0000029951 0.0000041061 0.0000649345 0.0000059348 0.0000313081 0.0000111504 0.0000235852 0.0000132897 0.0000245136 0.0001355699
        </DataArray>
        <DataArray type="Float32" Name="contact normal" NumberOfComponents="3" format="ascii">
 0.9747558712 -0.1893111810 -0.1183734272 0.1555708486 0.9312596498 0.3294740896 -0.0006369920 0.6164432039 -0.7873991177 -0.2103059691 0.7157954371 -0.6658890985 0.1103661266 -0.0480325024 -0.9927296696 0.2338443997 -0.1107130539 -0.9659500072 0.5992033325 -0.7720087746 -0.2120325875 -0.3785335768 0.6351393739 -0.6732832293 -0.3288763284 0.6782702405 -0.6571071766 -0.1641726520 -0.9501205722 -0.2651758636 -0.8558112586 0.4668481577 0.2228001061 -0.1400040233 -0.4491076448 0.8824404778 -0.1480002135 -0.4748835336 0.8675145914 -0.1169582140 -0.3830540836 0.9162916267 -0.0083258228 0.0626788051 -0.9979990221 0.0267971645 -0.0943981889 -0.9951738009 -0.8319738343 -0.0603931952 0.5515180876 -0.4684044690 0.3948190185 -0.7903892687 -0.3784751867 -0.4904666216 -0.7849834560 0.4266448516 -0.1496997644 0.8919440292 0.4063558599 -0.1798501383 0.8958397417 -0.6620806432 -0.1481343934 -0.7346464615 0.5876658001 -0.7239339757 0.3613426436 -0.6340953457 -0.2069773539 -0.7450392389 -0.0676084234 -0.3232815179 -0.9438846123 -0.7624917663 0.1937148571 -0.6173174714 0.3124750224 -0.0294309264 0.9494699474 -0.7342390267 -0.5295571562 0.4248085097 -0.7988573865 -0.6010888239 0.0227838055 -0.0013695840 -0.9554469316 0.2951597620 0.3770221209 0.7929138612 0.4786877156 0.3335670644 -0.6196525033 -0.7104673030 0.7209804242 0.5217085941 -0.4560782508 0.7537178545 0.4852867644 -0.4431773370 0.2852030707 0.6836232438 -0.6718024032 -0.4732837369 -0.4351857124 -0.7659085455 0.2186663201 -0.1884395511 -0.9574317605 -0.6235801307 0.7261396599 -0.2896014760 -0.5201690162 0.6631045243 0.5382532717 -0.1223163061 -0.0632316934 -0.9904748731 -0.3277449386 0.7301528153 0.5995499324 -0.7229386805 0.6861783434 0.0807399859 0.4062276711 -0.7683019183 -0.4946627554 0.4403019283 -0.7260582105 -0.5281795972 0.1714158177 0.2531713781 0.9521138959 -0.4363223544 -0.6609509698 0.6105461642 -0.9456346032 -0.3248606544 -0.0155161987 0.6139409408 -0.7892914483 0.0097739858 0.5989318725 -0.8007998192 0.0005115929 0.5472195137 0.8316357121 0.0945137352 0.4998103574 0.7782009160 -0.3802537848 0.0644270844 -0.3623482003 0.9298133859 0.7572578278 -0.0105288804 0.6530311822 0.1054427886 0.2945918269 0.9497881205 -0.1809033595 0.8143292520 -0.5514905655 -0.1033735478 0.6607660485 -0.7434393982 -0.0957177002 0.2005488512 -0.9749965539 -0.2508228250 0.5934651313 0.7647790847 0.4792864420 -0.4879596105 -0.7295066313 0.2611652454 -0.8734880497 0.4108665739 -0.4050281054 0.2950868585 -0.8653762071 -0.5610679887 0.6174400195 -0.5513352286 0.6796792561 -0.6364901997 -0.3645769254 0.1152706770 -0.2602846629 -0.9586263950 0.2785774624 -0.2555911279 -0.9257795487 -0.1151304366 -0.6947380718 0.7099887282 -0.1319848479 -0.1364307907 -0.9818180276 0.1889918570 -0.3259892653 0.9262899529 0.1771373922 -0.3355339083 0.9252239408 -0.3538980653 0.6917215617 -0.6295057112 -0.5815554253 -0.3308932749 0.7431708605 -0.6850121468 -0.6446810469 0.3393297902 -0.3519600532 0.0409978930 -0.9351167273 0.2481189799 0.1400656785 -0.9585502478 0.6234844859 0.3239613105 -0.7115589681 0.9444721630 -0.0566729134 0.3236672893 0.9482909733 0.0855582832 0.3056534149 -0.4734709940 0.6020973488 -0.6428872377 -0.5584089719 0.4656546057 0.6865458530 -0.4312449728 0.6832494728 0.5892350391 0.1343164800 0.8425419995 -0.5216148600 -0.6365655331 -0.7534980047 0.1643930625 0.0926931830 -0.3335341510 0.9381699974 0.0489975109 -0.2190345026 0.9744860854 0.3163060546 0.5396139094 -0.7802354187 0.7737778548 0.4542859627 0.4414658486 0.3336504801 0.5760570372 -0.7462142099 0.2731731825 0.6214755898 -0.7342646005 0.8864797967 0.4479936234 -0.1159969115 -0.3029213190 -0.8435898123 -0.4433902378 -0.2974526650 0.9482576531 0.1110375406 -0.3437131061 0.8246689547 0.4492019766 -0.8803521303 -0.1147583171 -0.4602289163 -0.2751924627 -0.8528871376 -0.4436807850 -0.0722250876 -0.8079354601 -0.5848280337 -0.2014297342 0.9574088456 0.2068679882 -0.5934934181 0.7299777204 0.3389662082 -0.3922029741 -0.5327731050 0.7498864219 0.3396599073 0.5385661901 -0.7710885852 0.3862867807 0.5406393561 -0.7473229621 0.3396451358 0.5385653083 -0.7710957077 0.3396411592 0.5385650708 -0.7710976251 0.1126234220 -0.4601018563 0.8806941845 0.1108304880 -0.4528053803 0.8846942356 -0.0838072758 -0.9413545505 -0.3268454540 0.7066996797 -0.6148239934 -0.3500957295 0.4599583014 -0.3548456071 -0.8139551315 -0.2235059024 0.1352026136 0.9652799412 -0.2231789021 0.1347970612 0.9654123109 -0.2230393581 0.1346243932 0.9654686517 -0.2232259093 0.1348553529 0.9653933018 -0.2225745926 0.1340476922 0.9656561329 -0.2236665940 0.1354019152 0.9652147824 -0.2227676008 0.1342873341 0.9655783282 -0.2224646210 0.1339113351 0.9657003918 -0.1802069025 0.0818507899 0.9802172823 -0.2226731479 0.1341812315 0.9656148644 -0.2226579051 0.1344143819 0.9655859523 -0.2230712085 0.1349937553 0.9654097171 0.1669230317 -0.3145201453 -0.9344590840 -0.2215170979 0.1354735614 0.9657003104 0.2534593059 -0.2169794562 -0.9426973511 0.2505244245 -0.2101581305 -0.9450243769 0.4823454456 -0.3851676134 -0.7867584005 0.7374707370 0.4353331305 0.5163545077 0.4636770734 0.3371314479 -0.8193570397 0.8230558126 -0.5670205482 -0.0326623224 0.2197735203 -0.1326030668 -0.9664967804 0.2253284827 -0.1300537316 -0.9655636187 0.2248751992 -0.1264204364 -0.9661516537 0.2037531165 -0.0979195283 -0.9741131523 0.2245800044 -0.1254477947 -0.9663470766 0.1756551815 -0.7374295099 0.6521832374 0.1958806220 0.1959952153 0.9608416402 -0.0155783293 0.4234320533 -0.9057939125 -0.0707335048 0.3607700181 -0.9299686905 -0.1004544096 0.3256069763 -0.9401537154 -0.0743052719 0.1549377175 -0.9851258956 -0.3376759607 0.8585541187 0.3858234970 0.1560714160 -0.5231908560 0.8378025074 -0.3066319610 -0.9367103703 -0.1689689991 0.9258886860 0.1042663873 -0.3631234798 0.5340552535 0.5979769053 0.5976693124 -0.6750395065 -0.6277282922 -0.3876581688 -0.9195443029 0.3290269851 -0.2148942020 0.0689901566 -0.6885787085 0.7218723714 0.0714554780 -0.6715883991 0.7374707701 0.0633665708 -0.3692009739 0.9271867765 0.4348801074 0.8794772414 -0.1933884021 -0.3197013922 -0.5167991808 -0.7941722902 0.2726850655 0.5234831845 -0.8072225285 -0.0187488672 0.0079272157 0.9997927981 -0.0187587705 0.0079574822 0.9997923719 0.0753913166 -0.0381787547 0.9964228681 0.2195190905 -0.5921838731 -0.7753254990 -0.1204670220 0.3287104389 -0.9367161491 -0.1204802068 0.3287213058 -0.9367106399 0.2194905410 -0.5919959164 -0.7754771030 -0.1204918762 0.3287309233 -0.9367057637 0.1357922554 -0.0261345754 0.9903925723 0.2192801776 -0.5917298270 -0.7757396570 0.2181298537 -0.5917908642 -0.7760173580 -0.3180733480 -0.8153304640 0.4838032449 -0.2059585282 0.1752069601 0.9627479451 -0.8647629925 0.4792096026 -0.1501436763 -0.0545662201 0.3320566249 0.9416798424 -0.6879674802 0.4288347150 -0.5854925562 -0.0387125859 -0.7615602543 -0.6469368708 0.1347038625 -0.2781034785 -0.9510590543 0.6640555264 0.3246302169 -0.6735320928 -0.2386421589 -0.2963054600 0.9247988940 -0.1923039644 -0.3520415855 -0.9160163248 -0.1771652745 -0.3510677030 -0.9194367479 -0.1801688695 -0.3565756445 -0.9167295066 -0.8774164182 0.4309647237 0.2107364137 -0.5001463016 0.4190882348 -0.7577722141 0.5889338904 -0.5446834185 -0.5970568200 0.2175272577 -0.1596549155 -0.9629081992 0.9732603063 0.2297010252 0.0013472623 -0.6193180044 0.5275413337 -0.5815026661 0.9097935937 -0.4077800537 0.0774018394 0.6530872810 0.0527857253 -0.7554407128 0.1090823521 0.9771217270 0.1825764800 -0.6847297551 -0.2364564440 0.6893718246 -0.6894292320 -0.2314263235 0.6863885130 -0.6822136070 -0.2397817492 0.6907165173 -0.6643647421 -0.2351697390 0.7094467445 0.4877477078 -0.4803061772 -0.7289774685 0.7528398555 -0.6492569449 -0.1081553114 0.0332295275 0.4261963815 0.9040201562 -0.6546381754 0.4064929308 0.6373479086 -0.0727270901 -0.4846301553 -0.8716905316 -0.5033514464 -0.6987138850 0.5083662344 0.3390146032 0.2884264956 -0.8954771105 -0.2373867404 0.0128334641 -0.9713304472 -0.2615758667 -0.0587915968 -0.9633906861 0.7522845209 0.2694530031 0.6012179960 0.1439992277 -0.6094700788 0.7796219888 -0.4401296411 0.8365767827 0.3262287321 0.2696944588 0.7976507168 0.5394610579 0.2716267738 0.8386166587 0.4721662795 0.2090909552 0.6355597286 -0.7431990338 -0.3845827179 0.7536675690 -0.5329928035 -0.2919741114 0.6684403519 0.6840603878 -0.2518867769 0.6666796721 0.7014921713 -0.8247792903 0.4462214320 0.3473119001 -0.1772986298 0.9573740050 0.2280355465 0.3002251369 0.5922460043 -0.7477362754 0.2806539537 0.5827383455 -0.7626594122 -0.2984382695 0.4463302479 -0.8436373089 -0.3000403102 0.4872090707 -0.8201238527 -0.1923662182 -0.5414369286 0.8184383241 -0.1957699652 -0.5312646540 0.8242766454 -0.4403354808 0.6284760768 -0.6411883384 0.0843782750 0.9896444408 0.1161214342 -0.6559038642 -0.6631175770 0.3606455322 -0.6477035590 -0.7391622835 -0.1847138824 0.6216546760 -0.6939956158 -0.3632018021 -0.4376978857 0.6554040433 -0.6155209995 -0.1216542367 0.3523897416 -0.9279125588 -0.2329521312 0.2568628590 -0.9379524381 -0.4786192561 0.7628192748 -0.4347762203 -0.1737054299 0.6567057492 0.7338691863 -0.7734228893 -0.6004255418 -0.2032392756 -0.7640760015 -0.6230909909 -0.1671690189 0.2986763041 0.2188551555 -0.9289213564 0.2974135969 0.2166323019 -0.9298470832 -0.2439371887 0.3579370975 -0.9013188571 0.3978109845 0.4542192845 -0.7971394245 0.3423447385 0.4963764555 -0.7977534046 -0.3679627261 0.7958015942 0.4809399701 -0.3649441686 0.8040810632 0.4693286670 -0.8854929209 0.3731738842 0.2768456957 -0.8869885595 0.3678066859 0.2792302582 0.0322018404 0.0956251597 -0.9948964119 0.0299019027 0.0983267630 -0.9947048426 0.0681917244 0.0531657648 -0.9962546312 0.0336684946 0.0939406452 -0.9950083355 0.0706223039 0.0502746642 -0.9962353880 0.0314981102 0.0964979445 -0.9948346676 0.0697307435 0.0513379532 -0.9962439651 -0.9735284235 0.2172809023 0.0709324899 -0.4238751404 -0.7489763551 -0.5092781998 0.4890280782 -0.6031937830 0.6300863424 0.0011443452 0.0684542691 -0.9976535990 0.1759360784 -0.2961183431 -0.9388079800 0.5084296666 -0.3526615783 -0.7855756395 0.1803345334 -0.9835924968 -0.0050255624 0.9711373737 -0.0971638475 -0.2178333954 -0.2651211137 -0.9614119897 0.0734695929 -0.2908609431 -0.5680926149 0.7698510847 0.6003702005 -0.1235694022 -0.7901178553 0.4877572337 0.4212441618 0.7646216301 -0.0680089371 -0.9155789835 -0.3963456943 -0.1219557945 0.3803765423 -0.9167554037 0.3198536718 -0.2090733117 0.9241114538 -0.6040765495 -0.0347606987 -0.7961678316 -0.2391617521 -0.6359409426 0.7337443518 -0.2315509636 -0.6370169346 0.7352506894 0.8045640439 -0.5925171155 0.0400020874 0.5654662324 -0.0073248468 0.8247389203 0.0996614692 0.7560920484 0.6468325950 -0.1534730928 0.6421880805 -0.7510262839 0.7465933836 0.1815142349 -0.6400397660 0.1414895109 -0.5278149760 -0.8374915340 -0.6001570310 -0.5560273678 -0.5750174818 -0.2655265066 0.5367719730 -0.8008567433 -0.8479719807 -0.3158351606 -0.4256661500 -0.7710805008 -0.1248551950 -0.6243765223 0.3590317969 0.2544339115 -0.8979752522 0.3518005931 0.2536804761 -0.9010452590 0.3589466893 0.2544590256 -0.8980021595 0.4646789806 -0.0593366285 0.8834888848 -0.0937036306 -0.1858340203 -0.9781029325 -0.0848837871 -0.1981143196 -0.9764965228 -0.1139212090 -0.6161857815 -0.7793183180 0.0885969927 0.1653905012 0.9822405790 0.7157452847 -0.2994751171 -0.6308909110 0.8781445577 0.0218797315 0.4778947720 0.4081433638 0.9091576077 -0.0827734191 0.9198162119 -0.1472114434 -0.3636852036 0.4277957906 0.5480227521 -0.7187919203 0.4394608549 0.5374374953 -0.7197465496 -0.0485472385 -0.6506533943 0.7578214342 -0.0481455099 -0.6506581365 0.7578429912 -0.0497880316 -0.6508235930 0.7575947484 -0.0495901268 -0.6508271139 0.7576047038 -0.0496823464 -0.6508520018 0.7575772807 0.3639489486 -0.0156222411 -0.9312878762 0.9432776727 0.2503007254 -0.2181210193 -0.4285683960 0.5269204614 0.7339509230 -0.4289594212 0.5264948336 0.7340279322 -0.4345228266 0.5250913185 0.7317574875 -0.7262211036 0.3025964965 0.6172829732 -0.0362769960 0.2405709494 -0.9699533998 0.0041145292 0.2892704996 -0.9572385537 0.0163379761 0.3096399711 -0.9507134999 0.2013722902 0.3973490455 -0.8953004729 0.1078223028 0.8494464642 -0.5165414363 -0.3692986148 -0.1432374849 -0.9182056175 -0.2699967505 0.0784216391 -0.9596623371 -0.3530757626 -0.2887002798 0.8899380059 -0.3215940399 -0.9253112944 -0.2009385030 0.2932616490 -0.5837300704 -0.7571372465 -0.0298858317 -0.6451724744 -0.7634522351 0.2668481719 0.3720000408 -0.8890489429 0.3191518200 0.1144580760 -0.9407664241 -0.3964111068 0.0135428730 -0.9179732159 -0.3971604670 0.0123352177 -0.9176662824 -0.3732033575 0.0502636681 -0.9263869697 -0.3734208720 0.0499723381 -0.9263150748 0.1842378799 -0.3894891176 0.9024159966 -0.2693495320 0.0358335910 -0.9623755937 -0.2119677991 0.0192435260 -0.9770871706 -0.0860993783 -0.1622353618 0.9829885983 0.6305983444 -0.6960981826 -0.3432099187 0.6343287174 -0.6934417519 -0.3417098403 -0.2452337357 0.8945662369 -0.3736464409 -0.4035220723 0.9128096403 0.0628370733 -0.5503012188 -0.7400322957 0.3866791562 0.1735312358 0.3615622977 -0.9160565567 0.1744388183 0.3463884489 -0.9217299719 0.3688400816 -0.7351879329 -0.5687316569 -0.4895645014 -0.5444991389 -0.6810633500 0.0874873884 0.4826744860 0.8714191285 0.0729862199 0.4577590173 0.8860754447 0.2545762059 0.7718856987 -0.5825662397 0.2177941050 0.8018492458 -0.5564202682 -0.1614229648 -0.9838731733 0.0770467737 -0.0928359660 0.9011145154 0.4235258120 -0.4452324736 -0.8639917106 -0.2351305351 0.7007694627 -0.1018075276 0.7060859632 0.7781030779 -0.0149211470 0.6279593613 -0.1273913013 -0.6337175012 0.7630030046 -0.1228788176 -0.6298742344 0.7669154093 -0.1273601288 -0.6337426114 0.7629873525 -0.1228486878 -0.6299736748 0.7668385547 -0.1229057879 -0.6300216428 0.7667899953 -0.0930045933 -0.6040540914 0.7914978208 -0.1220037995 -0.6310544237 0.7660844517 -0.0935468021 -0.6037205524 0.7916883796 -0.0934254394 -0.6036251378 0.7917754608 -0.0310403604 0.6016997523 0.7981189787 0.5127638411 0.8091974269 -0.2868322989 0.9208300622 0.2509974961 0.2984497503 -0.0789510289 0.2649963549 -0.9610117933 -0.0745173817 0.2682602358 -0.9604601011 -0.0701939428 0.2713696920 -0.9599121317 0.3275274776 0.4936614513 -0.8056203342 0.6858922901 0.7189477629 0.1125427947 -0.1523942456 -0.6449717911 0.7488573847 -0.1524423819 -0.6449497685 0.7488665544 -0.1524558446 -0.6449474251 0.7488658320 -0.1524077419 -0.6449529431 0.7488708710 -0.1524383774 -0.6449494368 0.7488676553 -0.1524583469 -0.6449471153 0.7488655893 -0.1524550960 -0.6449474897 0.7488659287 -0.1523885854 -0.6449551489 0.7488728697 -0.1524036173 -0.6449534180 0.7488713014 0.0626325114 0.755248978