<?xml version="1.0"?>
<VTKFile type="UnstructuredGrid" version="0.1" byte_order="LittleEndian">
  <UnstructuredGrid>
    <FieldData>
      <DataArray type="Float32" Name="TIME"  NumberOfTuples="1" format="ascii"> 4.6000000000 </DataArray>
      <DataArray type="Int32"   Name="STEP"  NumberOfTuples="1" format="ascii"> 460000 </DataArray>
    </FieldData>
    <Piece NumberOfPoints="399" NumberOfCells="399">
      <Points>
        <DataArray type="Float32" NumberOfComponents="3" format="ascii">
 0.4248653328 0.2068252489 0.0759428607 0.5299832344 0.1286325698 0.0400907278 0.5050732984 0.1472906150 0.1825916389 0.6403307066 0.1082661574 0.1124597239 0.5396123956 0.3646965751 0.2040005542 0.5528625175 0.3591023577 0.2072264609 0.5678908322 0.4472842619 0.1939268335 0.7522014650 0.1787389625 0.1457377801 0.7585132409 0.1855914824 0.1501548297 0.6781370584 0.4551488413 0.1694658953 0.8496088070 0.2321591150 0.1150672190 0.7816290947 0.3733975756 0.0369726746 0.7953317323 0.3703146031 0.0373492055 0.8168259650 0.3857433891 0.0431749951 0.8042875267 0.3963505538 0.2240355206 0.8177013469 0.3880442527 0.2261940018 0.8970056183 0.3686628591 0.1723158992 0.7489577740 0.3245511067 0.6726887901 0.7715938045 0.2992914618 0.6582631368 0.7860264532 0.3638995459 0.5621515801 0.8677399504 0.6052378667 0.5111380927 0.9118154770 0.5556478893 0.5587195398 0.8933346759 0.6065771604 0.4947004659 0.9262234071 0.5446452839 0.5458335162 0.9417328615 0.3093611922 0.5254665847 0.9349241697 0.3343195426 0.5344033472 0.9466583772 0.4740610345 0.4508193088 0.2426831608 0.7997982194 0.0414070378 0.2550042651 0.8173391975 0.0914574726 0.0745409031 0.9091235906 0.1097902119 0.1543236770 0.7223194721 0.0815085577 0.0388482196 0.8885766982 0.1662303542 0.0554833098 0.8047838498 0.1553460929 0.0622454596 0.7985057614 0.1588803770 0.1716657942 0.7198410684 0.1453822819 0.1846703777 0.8263777349 0.1958309587 0.5696629070 0.7614159631 0.2455270951 0.6836959978 0.7584631806 0.2617671027 0.6518273770 0.7389198738 0.1620807171 0.7064500942 0.8129145468 0.2796417954 0.6573955800 0.7424563895 0.1621259914 0.6559153228 0.7439887968 0.1560627830 0.6050545995 0.8504648587 0.2446689073 0.6094914898 0.8548459774 0.2417823887 0.5207964028 0.7623146986 0.0984627076 0.7326508664 0.8581094630 0.2193672205 0.7273898425 0.8568455897 0.2066725331 0.5647765043 0.8549310776 0.1613300602 0.5655441862 0.8555397974 0.1539493878 0.1730879900 0.4807040708 0.3236701845 0.1676980283 0.4846857868 0.4415923831 0.1372092743 0.6603892488 0.2434470501 0.0843620281 0.6890418640 0.2636711198 0.1610016753 0.6613731327 0.2414227471 0.2576849002 0.4522145281 0.3447859682 0.2908210253 0.4616809739 0.4187212117 0.2909888025 0.5655092508 0.4523282798 0.3086335942 0.4589966146 0.2813314606 0.1182088374 0.7733038243 0.4080898867 0.2713210392 0.7854265108 0.2555508132 0.4240761055 0.5343443388 0.4164811439 0.4308568278 0.5455603765 0.4205658330 0.2460008187 0.8876087652 0.3715553293 0.3711236311 0.8402717708 0.4486931958 0.3884543792 0.8571710371 0.4473813844 0.4440475217 0.9114116254 0.2749310604 0.5616932155 0.7792375853 0.4616564233 0.7554633785 0.3393614852 0.5253680380 0.7491425106 0.3251156840 0.5221870296 0.7310391254 0.1923225779 0.5211129055 0.6605266915 0.0750019936 0.2089066565 0.6490921660 0.1078240418 0.2421729918 0.6082326610 0.1071848252 0.3161805027 0.5368084270 0.0942197966 0.3297715961 0.6497668204 0.8867022574 0.4452709984 0.6558281293 0.9007450512 0.3525090856 0.6572075572 0.9097056776 0.3464139806 0.7437353651 0.9446356937 0.5283421574 0.6975289947 0.9102989807 0.3310050809 0.7118969898 0.2412322397 0.2823340128 0.6923341370 0.1618250998 0.4376719481 0.7639626466 0.3793129811 0.3440297048 0.7707361121 0.3872252551 0.3523736341 0.5690856636 0.3189431471 0.3113889106 0.5335515827 0.2357772922 0.4478714421 0.4819230095 0.2672510764 0.3471238939 0.4709349129 0.3273644118 0.5039585320 0.4582438541 0.3355683507 0.5055501906 0.3861281482 0.4139791488 0.4441323863 0.5795575982 0.5972596665 0.5628790422 0.1272840289 0.2954920782 0.0794079066 0.1210212224 0.2920255354 0.0845415439 0.1781402883 0.3772359287 0.0528339264 0.1491838550 0.4388043056 0.0568121919 0.0950510607 0.4146552744 0.1045545813 0.2077569805 0.4386273133 0.0527656908 0.1964209066 0.4344284123 0.0567130804 0.2718644043 0.5419337040 0.0599525598 0.1116350160 0.4730195800 0.1348032690 0.1123438083 0.4827924098 0.1420336205 0.1047361922 0.4920111986 0.1450386901 0.0995440505 0.5073281754 0.1534456566 0.1196634921 0.6091643008 0.0768631776 0.1243074446 0.6141213918 0.0785439102 0.0731065524 0.6660885526 0.2039456807 0.0764847623 0.6738817312 0.1942221515 0.1368993386 0.3952856044 0.2410302818 0.2422134190 0.3041290242 0.2229844059 0.2365967806 0.2958150695 0.2228486105 0.2487070496 0.3044898674 0.2244119621 0.2293357165 0.2902092406 0.2219682362 0.2433833731 0.2948293416 0.2245374389 0.2197446680 0.2869282996 0.2202322024 0.2548634295 0.3066654941 0.2255147087 0.2368435947 0.2880812123 0.2239871266 0.2496215166 0.2953274176 0.2258877062 0.2609601708 0.3107895767 0.2263360173 0.2673068538 0.3172670592 0.2268946161 0.2743127803 0.3269065569 0.2271855143 0.0603282186 0.3238591705 0.2405524508 0.2818534294 0.3248940521 0.2291694309 0.2734196690 0.3270487904 0.3139744874 0.2819440587 0.3344276997 0.3145355344 0.0744062490 0.2508625721 0.2704874188 0.0724366962 0.1488440715 0.2300772138 0.1130166741 0.0685983015 0.2994129701 0.1289108756 0.0610859385 0.3107435648 0.2422535121 0.1318701526 0.3407275014 0.2508580457 0.1370575166 0.3419974260 0.2667439217 0.1556162802 0.3433603405 0.2741730587 0.1652456982 0.3438922190 0.2824441917 0.1696901923 0.3451598907 0.8679177720 0.1866464400 0.4388063793 0.8336806216 0.1057840626 0.4125785682 0.7587829629 0.1533910021 0.5977295057 0.7548284256 0.1422542024 0.5935164400 0.7470137842 0.1331148309 0.5912832689 0.2973186213 0.2801239984 0.5031615285 0.2898206203 0.2700270082 0.4140874778 0.2535001522 0.3450425944 0.3698632007 0.3102816839 0.3803418613 0.4286200136 0.6312895724 0.7388025977 0.5144390932 0.6934333161 0.6467628764 0.3835487859 0.7179971251 0.8411230690 0.5228723686 0.7601125219 0.7119195125 0.4431574973 0.7150676658 0.7763953637 0.3773380500 0.7224915596 0.7765642269 0.3764745412 0.7217485840 0.7830361464 0.3798927784 0.5481881468 0.5178811106 0.2034166130 0.6016771158 0.5231818794 0.2544421588 0.6024649981 0.5427589361 0.2596856636 0.6200437538 0.5473504596 0.0836204771 0.6262679982 0.5623855118 0.0836988427 0.6399069429 0.5592326104 0.0832588677 0.7413567886 0.6640248535 0.2510471530 0.8187176458 0.4748238068 0.2427188681 0.8265618706 0.4850382502 0.2453613772 0.7524094896 0.6663459724 0.2524260526 0.8342695351 0.4949641375 0.2478053140 0.7588456988 0.7526339832 0.1137497761 0.7644307547 0.6690104909 0.2538322119 0.7782260189 0.6723033038 0.2552956698 0.8026218301 0.7665642062 0.1615338194 0.8794311963 0.6238429850 0.0942662432 0.9217431879 0.5592534964 0.1912943542 0.8981105262 0.6354671733 0.0942526938 0.9265942539 0.6781195522 0.2684888740 0.9125152602 0.7262491746 0.2334567491 0.9396907648 0.6711485026 0.2630038576 0.3658526566 0.5765588471 0.0833476835 0.4803349334 0.7324424359 0.0279599521 0.4430329680 0.6659639518 0.0961070323 0.4495917314 0.6639640559 0.0952666107 0.4523357512 0.6598792986 0.0965931178 0.3894147076 0.1711524914 0.4216737809 0.3343300076 0.0835969572 0.4717569719 0.1711625247 0.1840704141 0.3885515243 0.2163980859 0.1306974738 0.4587595767 0.1403165458 0.0872429759 0.4244189429 0.9285704657 0.4500576493 0.5810539281 0.2542664896 0.1549630095 0.0768234444 0.2905349967 0.1241720504 0.1289598570 0.3212511260 0.0796910398 0.1134318730 0.3626134938 0.1664948357 0.0989905493 0.3618115191 0.1720327868 0.1001069835 0.3650571969 0.1699174565 0.1024747457 0.3680818072 0.1736261083 0.1065971323 0.3291198470 0.2036816329 0.1572353821 0.3370099175 0.2091288540 0.1616357847 0.0617467011 0.1503422609 0.5058001035 0.1851544670 0.1663337193 0.5386192131 0.1499010192 0.2658904887 0.5712995489 0.1483448965 0.2522242372 0.4787909671 0.0408594109 0.9382737253 0.1632796709 0.1579121146 0.9508841144 0.1726203994 0.1685812053 0.9468865015 0.1683302856 0.4623076164 0.4848407188 0.1661080218 0.4577480740 0.4752227649 0.1662387032 0.5258207024 0.3954500015 0.2669790520 0.8807305309 0.5610003293 0.0484158525 0.8724848276 0.5657487987 0.0455652062 0.8788721711 0.5639568785 0.0436098708 0.9528858804 0.5564837950 0.0824622918 0.0848619871 0.9509146688 0.2972595191 0.0909312054 0.9527344578 0.2984105148 0.1709230091 0.9291511719 0.3642657247 0.7712013081 0.0774324732 0.2849991355 0.7320444976 0.0975390519 0.3049635399 0.7245536094 0.0995460753 0.3031240001 0.8351612946 0.1252678921 0.3223784841 0.8416794443 0.1387115929 0.3278998946 0.7707172471 0.1908858346 0.2038468092 0.7747344151 0.1947188446 0.2066773129 0.3426275313 0.1902179706 0.5344580987 0.3550227972 0.1906348332 0.5362017484 0.4139998891 0.2829447452 0.5664136518 0.9549011678 0.6061796117 0.3610204924 0.8663830413 0.6117986123 0.4001127948 0.8999173093 0.4790677369 0.3659221541 0.9022703176 0.4738061319 0.3628361670 0.8960225924 0.4718838697 0.3635567535 0.9027217673 0.3807539357 0.2926231617 0.8058047932 0.0773918487 0.5900191212 0.3432512038 0.9113997278 0.0686959005 0.3482565418 0.9041869424 0.0728548965 0.2973775233 0.8399041785 0.0897858121 0.2988439576 0.8343472017 0.0890977251 0.8006525169 0.6605803665 0.3595346174 0.6844026641 0.6155008173 0.3399598868 0.6751677290 0.6201204016 0.3384223063 0.1505753317 0.9040895655 0.4534406226 0.1568607226 0.9069185315 0.4543829507 0.1183441434 0.9135208770 0.2299884048 0.1206154026 0.9131855553 0.2376249945 0.2538575771 0.3186005391 0.1147665044 0.2556203601 0.3240388919 0.1154067053 0.2607363995 0.3190390737 0.1151261036 0.2621690184 0.3245772630 0.1156873682 0.2673285848 0.3190364779 0.1154433224 0.2631779793 0.3301134324 0.1161661778 0.2685365309 0.3247190681 0.1158619042 0.3468122831 0.2670681794 0.0577853618 0.2798047457 0.4118685499 0.0597694364 0.1971450996 0.4195476747
[...]
      <PointData Scalars="overlap">
        <DataArray type="Float32" Name="overlap" format="ascii">
 0.0002254525 0.0000175523 0.0002058743 0.0000272387 0.0000866191 0.0000333686 0.0000068584 0.0000517087 0.0002479122 0.0002508346 0.0001091378 0.0000486685 0.0000729443 0.0004923631 0.0000270699 0.0002312680 0.0000930672 0.0000060604 0.0000061169 0.0001282858 0.0000225471 0.0000491914 0.0000313994 0.0000303664 0.0000236720 0.0000097200 0.0001206829 0.0000834228 0.0001926785 0.0001200682 0.0000300711 0.0000288470 0.0000077065 0.0000869547 0.0002830385 0.0000288781 0.0001996168 0.0000835296 0.0000472392 0.0000983196 0.0001042268 0.0001687046 0.0000241966 0.0000127862 0.0001832757 0.0000524415 0.0000014448 0.0000530291 0.0001662178 0.0000602127 0.0000791545 0.0002215165 0.0000634493 0.0000342344 0.0000158020 0.0000084519 0.0000552730 0.0002890065 0.0001527780 0.0000510379 0.0001171650 0.0000167480 0.0000947569 0.0000952547 0.0000259047 0.0003202594 0.0000194088 0.0000906101 0.0000908241 0.0000192394 0.0000292020 0.0000607622 0.0000072457 0.0000864278 0.0000182748 0.0000016600 0.0000080902 0.0000088623 0.0000386297 0.0001859072 0.0000087904 0.0000307503 0.0002617988 0.0001147650 0.0000374524 0.0001252153 0.0000100194 0.0000137035 0.0000041057 0.0000158242 0.0000165651 0.0000396793 0.0000070241 0.0000394417 0.0000271749 0.0001011643 0.0001228982 0.0000460394 0.0000056318 0.0000080955 0.0000276001 0.0000245466 0.0000820847 0.0000443784 0.0000529459 0.0000486266 0.0000602666 0.0000762345 0.0000621891 0.0000974409 0.0000384827 0.0000569091 0.0000137849 0.0001103682 0.0000157842 0.0000254246 0.0001251159 0.0001383892 0.0001234024 0.0000800032 0.0001382966 0.0000157186 0.0000302797 0.0000371162 0.0000325152 0.0000592188 0.0000283478 0.0000085655 0.0000406155 0.0001086426 0.0000464159 0.0000186927 0.0000024520 0.0000396113 0.0000015866 0.0000123551 0.0000048948 0.0000335160 0.0000389970 0.0000605842 0.0000185460 0.0000168023 0.0000082702 0.0000067737 0.0000121103 0.0000222525 0.0000203180 0.0000126657 0.0000104033 0.0000258930 0.0000088557 0.0001699840 0.0000140672 0.0000454705 0.0000110907 0.0000460752 0.0001709516 0.0000240915 0.0001046199 0.0002023999 0.0000361805 0.0000389073 0.0001534665 0.0000029641 0.0000398076 0.0002877069 0.0000076125 0.0000180376 0.0000144644 0.0000431849 0.0000044476 0.0000130608 0.0000080202 0.0000748157 0.0000377174 0.0000594566 0.0000611869 0.0000358815 0.0000602526 0.0000172576 0.0000351557 0.0000001446 0.0000570652 0.0000125390 0.0000175257 0.0000518427 0.0000190766 0.0000527925 0.0000302428 0.0000300108 0.0000205047 0.0000078162 0.0000284834 0.0000113723 0.0000229003 0.0000146173 0.0000044515 0.0000260183 0.0000157972 0.0000056742 0.0000674868 0.0000368499 0.0000020953 0.0000127325 0.0000078245 0.0000002261 0.0000400771 0.0000106333 0.0000493628 0.0000639956 0.0000374555 0.0002481858 0.0000716379 0.0000078641 0.0000103713 0.0000072456 0.0000071419 0.0000117909 0.0000366504 0.0000338363 0.0000538660 0.0000648723 0.0000026836 0.0000081272 0.0000882365 0.0000310291 0.0000607601 0.0000854089 0.0000025877 0.0000074987 0.0000559663 0.0000901843 0.0000005034 0.0000287935 0.0000797033 0.0001170028 0.0003507177 0.0003214384 0.0000396431 0.0000254378 0.0001375846 0.0001622902 0.0000229608 0.0000387889 0.0000069715 0.0000152730 0.0000603269 0.0000176553 0.0000220496 0.0000122095 0.0000311897 0.0000745286 0.0000535452 0.0000058679 0.0000331095 0.0000231317 0.0000208027 0.0000334440 0.0000189489 0.0000232196 0.0000275862 0.0000619993 0.0000031545 0.0000056655 0.0000215701 0.0000014417 0.0000081547 0.0000690127 0.0002010945 0.0001004160 0.0000705149 0.0000618101 0.0000254348 0.0000532301 0.0000846000 0.0000197388 0.0000508085 0.0000228278 0.0001329055 0.0000053252 0.0000218424 0.0000399301 0.0000061286 0.0000134613 0.0000073740 0.0000122154 0.0000692746 0.0000459477 0.0000086108 0.0000062441 0.0000203645 0.0000509553 0.0000423013 0.0000044429 0.0000223383 0.0000264494 0.0000096484 0.0000018938 0.0000134165 0.0000581619 0.0001163158 0.0000070132 0.0000207937 0.0000300813 0.0000081704 0.0000234883 0.0000218844 0.0000728671 0.0000745194 0.0000794963 0.0000090882 0.0000792135 0.0000033673 0.0000339688 0.0000164572 0.0000035564 0.0000090746 0.0000222252 0.0000323781 0.0000315014 0.0000290126 0.0000209636 0.0000060285 0.0000219542 0.0000136983 0.0000218650 0.0000040566 0.0000588774 0.0000081288 0.0000051789 0.0000114452 0.0000607336 0.0000875531 0.0000141665 0.0000074929 0.0000051106 0.0000504041 0.0000601900 0.0000344001 0.0000376229 0.0000593722 0.0000512469 0.0000146831 0.0000059115 0.0000104476 0.0000043627 0.0000065817 0.0000085970 0.0000098151 0.0000055024 0.0000459254 0.0000166880 0.0000076909 0.0000326846 0.0000234034 0.0000007909 0.0000054335 0.0000595039 0.0000461376 0.0000197715 0.0000226709 0.0000419248 0.0000146807 0.0000079898 0.0000069499 0.0000337330 0.0000269816 0.0000105496 0.0000221172 0.0000404457 0.0000195035 0.0000138674 0.0000139402 0.0000066283 0.0000152008 0.0000080319 0.0000100974 0.0000157024 0.0000150304 0.0000046037 0.0000049600 0.0000517020 0.0000115893 0.0000606623 0.0000295829 0.0000317316 0.0000089837 0.0000186467 0.0000046075 0.0000027642 0.0000039080 0.0000651071 0.0000061768 0.0000313835 0.0000109475 0.0000235947 0.0000130945 0.0000245701 0.0001357400
        </DataArray>
        <DataArray type="Float32" Name="contact normal" NumberOfComponents="3" format="ascii">
 0.9747542554 -0.1893206691 -0.1183715584 0.1555828989 0.9312606376 0.3294656074 -0.0006368056 0.6164467903 -0.7873963101 -0.2103086623 0.7157924793 -0.6658914274 0.1103563057 -0.0480248887 -0.9927311297 0.2338340771 -0.1107072368 -0.9659531728 0.5992116490 -0.7720018095 -0.2120344451 -0.3785365198 0.6351393219 -0.6732816238 -0.3288791270 0.6782703456 -0.6571056674 -0.1641727170 -0.9501193384 -0.2651802439 -0.8558114098 0.4668469654 0.2228020235 -0.1400014510 -0.4491035231 0.8824429836 -0.1479973112 -0.4748785559 0.8675178114 -0.1169562672 -0.3830514463 0.9162929777 -0.0083266226 0.0626850916 -0.9979986206 0.0267983896 -0.0943924965 -0.9951743078 -0.8319756350 -0.0603926920 0.5515154263 -0.4684011584 0.3948303053 -0.7903855925 -0.3784752924 -0.4904535814 -0.7849915525 0.4266819396 -0.1496727185 0.8919308268 0.4063654671 -0.1798420432 0.8958370090 -0.6620672357 -0.1481325247 -0.7346589212 0.5876559730 -0.7239429411 0.3613406638 -0.6340811736 -0.2069751066 -0.7450519247 -0.0676149957 -0.3232683413 -0.9438886544 -0.7624902785 0.1937238873 -0.6173164753 0.3124908052 -0.0294200531 0.9494650900 -0.7342341966 -0.5295612911 0.4248117035 -0.7988500479 -0.6010983691 0.0227892887 -0.0013711325 -0.9554461386 0.2951623217 0.3770200981 0.7929090325 0.4786973070 0.3335754648 -0.6196474927 -0.7104677291 0.7209788638 0.5217130924 -0.4560755718 0.7537166968 0.4852911287 -0.4431745270 0.2852121771 0.6836274721 -0.6717942345 -0.4732849842 -0.4351841061 -0.7659086875 0.2186501860 -0.1884213280 -0.9574390316 -0.6235802929 0.7261395871 -0.2896013092 -0.5201703590 0.6631033794 0.5382533844 -0.1223020461 -0.0632380614 -0.9904762274 -0.3277454395 0.7301531016 0.5995493100 -0.7229382354 0.6861787906 0.0807401710 0.4062234987 -0.7683098329 -0.4946538889 0.4402999309 -0.7260661044 -0.5281704109 0.1714096988 0.2531735231 0.9521144271 -0.4363225205 -0.6609551351 0.6105415362 -0.9456343479 -0.3248612843 -0.0155185698 0.6139379639 -0.7892936557 0.0097827158 0.5989296667 -0.8008014629 0.0005209963 0.5472208470 0.8316360784 0.0945027918 0.4998132145 0.7781934623 -0.3802652834 0.0644269962 -0.3623460385 0.9298142344 0.7572566340 -0.0105233575 0.6530326556 0.1054405599 0.2946061318 0.9497839309 -0.1808965255 0.8143214220 -0.5515043687 -0.1033736561 0.6607667756 -0.7434387369 -0.0956968302 0.2005414293 -0.9750001291 -0.2508201282 0.5934727032 0.7647740934 0.4793102955 -0.4879196629 -0.7295176785 0.2611701102 -0.8734911541 0.4108568816 -0.4050187185 0.2950865381 -0.8653807097 -0.5610597559 0.6174388957 -0.5513448652 0.6796918296 -0.6364749605 -0.3645800893 0.1152661902 -0.2602584177 -0.9586340602 0.2785726872 -0.2555678620 -0.9257874086 -0.1151268998 -0.6947419116 0.7099855444 -0.1319870017 -0.1364063937 -0.9818211279 0.1889882630 -0.3259869308 0.9262915078 0.1771340048 -0.3355313775 0.9252255071 -0.3539172152 0.6917201450 -0.6294965018 -0.5815546258 -0.3308891383 0.7431733279 -0.6850142520 -0.6446759903 0.3393351471 -0.3519567794 0.0410000749 -0.9351178638 0.2481387287 0.1400614206 -0.9585457578 0.6234683734 0.3239863438 -0.7115616885 0.9444699064 -0.0566733156 0.3236738036 0.9482893508 0.0855577100 0.3056586092 -0.4734709106 0.6020851657 -0.6428987090 -0.5584199713 0.4656564253 0.6865356723 -0.4312474509 0.6832490819 0.5892336788 0.1343175633 0.8425387757 -0.5216197885 -0.6365633146 -0.7535021870 0.1643824827 0.0926943282 -0.3335352373 0.9381694980 0.0489954892 -0.2190303720 0.9744871155 0.3163038771 0.5396034898 -0.7802435076 0.7737803617 0.4542851607 0.4414622800 0.3336639192 0.5760544023 -0.7462102348 0.2731862815 0.6214738925 -0.7342611637 0.8864807460 0.4479903641 -0.1160022440 -0.3028625164 -0.8435972033 -0.4434163447 -0.2974542875 0.9482579467 0.1110306869 -0.3437148075 0.8246723397 0.4491944605 -0.8803496891 -0.1147574007 -0.4602338143 -0.2751901528 -0.8528881712 -0.4436802309 -0.0722193862 -0.8079358486 -0.5848282011 -0.2014308616 0.9574073165 0.2068739671 -0.5934960868 0.7299745264 0.3389684142 -0.3922065297 -0.5327747603 0.7498833862 0.3396732375 0.5385640510 -0.7710842072 0.3862997630 0.5406370499 -0.7473179199 0.3396584673 0.5385631694 -0.7710913293 0.3396544916 0.5385629320 -0.7710932464 0.1126271020 -0.4601053285 0.8806918999 0.1108341531 -0.4528088439 0.8846920037 -0.0838013754 -0.9413533060 -0.3268505512 0.7066997852 -0.6148228307 -0.3500975584 0.4599502040 -0.3548452247 -0.8139598739 -0.2235102698 0.1352053842 0.9652785419 -0.2231832709 0.1347998302 0.9654109142 -0.2230437284 0.1346271626 0.9654672560 -0.2232302774 0.1348581215 0.9653919050 -0.2225789652 0.1340504596 0.9656547409 -0.2236709591 0.1354046847 0.9652133823 -0.2227719730 0.1342901029 0.9655769344 -0.2224689938 0.1339141016 0.9656990008 -0.1802115215 0.0818534329 0.9802162124 -0.2226775209 0.1341840005 0.9656134712 -0.2226622758 0.1344171508 0.9655845590 -0.2230755769 0.1349965262 0.9654083203 0.1669274056 -0.3145201067 -0.9344583157 -0.2215214424 0.1354763225 0.9656989265 0.2534601206 -0.2169873759 -0.9426953092 0.2505252891 -0.2101661020 -0.9450223749 0.4823435879 -0.3851728728 -0.7867569646 0.7374708539 0.4353347880 0.5163529432 0.4636667094 0.3371330506 -0.8193622452 0.8230627142 -0.5670105873 -0.0326613286 0.2197708098 -0.1326065452 -0.9664969195 0.2253257310 -0.1300572329 -0.9655637893 0.2248724212 -0.1264238905 -0.9661518484 0.2037504904 -0.0979228356 -0.9741133691 0.2245772003 -0.1254512073 -0.9663472853 0.1756615203 -0.7374329264 0.6521776670 0.1958934880 0.1959947586 0.9608391103 -0.0155859556 0.4234288746 -0.9057952673 -0.0707413881 0.3607668459 -0.9299693215 -0.1004624156 0.3256038093 -0.9401539567 -0.0743225950 0.1549459866 -0.9851232883 -0.3376679115 0.8585547130 0.3858292193 0.1560672928 -0.5231850067 0.8378069282 -0.3066377818 -0.9367086112 -0.1689681880 0.9259220661 0.1042816328 -0.3630339771 0.5340535714 0.5979784737 0.5976692463 -0.6750205461 -0.6277565764 -0.3876453833 -0.9195239968 0.3290590431 -0.2149320019 0.0689837845 -0.6885771420 0.7218744746 0.0714481706 -0.6715856777 0.7374739565 0.0633546941 -0.3691977197 0.9271888840 0.4348717039 0.8794811333 -0.1933895998 -0.3197019544 -0.5168102169 -0.7941648821 0.2726955999 0.5234749759 -0.8072242931 -0.0187450016 0.0079261432 0.9997928791 -0.0187549068 0.0079564108 0.9997924530 0.0753948892 -0.0381804208 0.9964225339 0.2195167165 -0.5921854754 -0.7753249473 -0.1204680674 0.3287115456 -0.9367156263 -0.1204812511 0.3287224115 -0.9367101175 0.2194881668 -0.5919975229 -0.7754765486 -0.1204929196 0.3287320281 -0.9367052418 0.1357646848 -0.0261308041 0.9903964516 0.2192778013 -0.5917314396 -0.7757390987 0.2181274668 -0.5917924894 -0.7760167896 -0.3180926698 -0.8153408106 0.4837731038 -0.2059563687 0.1752067522 0.9627484449 -0.8647648746 0.4792065126 -0.1501426986 -0.0545655979 0.3320567511 0.9416798339 -0.6879623957 0.4288511135 -0.5854865196 -0.0387611107 -0.7615537265 -0.6469416496 0.1346728489 -0.2781224379 -0.9510579022 0.6640589980 0.3246328545 -0.6735273988 -0.2386590624 -0.2963327252 0.9247857957 -0.1922982037 -0.3520445189 -0.9160164068 -0.1771592869 -0.3510704444 -0.9194368549 -0.1801628988 -0.3565784344 -0.9167295948 -0.8774162153 0.4309653826 0.2107359107 -0.5001223600 0.4190711926 -0.7577974403 0.5889319623 -0.5446874986 -0.5970549997 0.2174003972 -0.1597280748 -0.9629247164 0.9732603959 0.2297006984 0.0013382854 -0.6193078287 0.5275605606 -0.5814960603 0.9097908874 -0.4077854626 0.0774051536 0.6530777414 0.0527665341 -0.7554503005 0.1091422822 0.9771412279 0.1824362437 -0.6847318629 -0.2364479824 0.6893726333 -0.6894318386 -0.2314174445 0.6863888886 -0.6822153937 -0.2397735699 0.6907175919 -0.6643670937 -0.2351611870 0.7094473771 0.4877504973 -0.4803104862 -0.7289727630 0.7528393488 -0.6492562099 -0.1081632504 0.0332315274 0.4261977759 0.9040194254 -0.6546845829 0.4063189383 0.6374111839 -0.0725750475 -0.4846456723 -0.8716945765 -0.5033499726 -0.6987155209 0.5083654452 0.3390203809 0.2884338814 -0.8954725442 -0.2373887186 0.0128342491 -0.9713299534 -0.2615766051 -0.0587888297 -0.9633906545 0.7522917662 0.2694451702 0.6012124407 0.1439934307 -0.6094782329 0.7796166850 -0.4401155780 0.8365793565 0.3262411046 0.2696939766 0.7976547510 0.5394553339 0.2716257369 0.8386192234 0.4721623208 0.2090917780 0.6355671062 -0.7431924932 -0.3845852275 0.7536652715 -0.5329942414 -0.2919833962 0.6684343935 0.6840622471 -0.2518974198 0.6666735177 0.7014941986 -0.8247884940 0.4462035400 0.3473130304 -0.1772993937 0.9573730156 0.2280391063 0.3002287381 0.5922471338 -0.7477339349 0.2806573388 0.5827393843 -0.7626573728 -0.2984519589 0.4463291482 -0.8436330480 -0.3000538811 0.4872079618 -0.8201195464 -0.1923631159 -0.5414392976 0.8184374861 -0.1957667237 -0.5312672969 0.8242757119 -0.4403122216 0.6284679303 -0.6412122956 0.0843755975 0.9896467954 0.1161033115 -0.6559087409 -0.6631178748 0.3606361155 -0.6477393566 -0.7391369308 -0.1846898036 0.6216305699 -0.6940202738 -0.3631959445 -0.4377214103 0.6553921716 -0.6155169115 -0.1216763368 0.3523832613 -0.9279121220 -0.2329722813 0.2568539593 -0.9379498706 -0.4786264518 0.7628195487 -0.4347678183 -0.1736927618 0.6566994985 0.7338777781 -0.7734283963 -0.6004187002 -0.2032385304 -0.7640818320 -0.6230840488 -0.1671682450 0.2986760184 0.2188549796 -0.9289214897 0.2974133158 0.2166321030 -0.9298472195 -0.2439397905 0.3579250768 -0.9013229266 0.3978211366 0.4542102109 -0.7971395283 0.3423551077 0.4963677779 -0.7977543540 -0.3679624428 0.7958078279 0.4809298719 -0.3649440735 0.8040870293 0.4693185193 -0.8854923234 0.3731740549 0.2768473767 -0.8869879123 0.3678070398 0.2792318479 0.0322072664 0.0956228548 -0.9948964577 0.0299073324 0.0983244721 -0.9947049058 0.0681969516 0.0531634014 -0.9962543995 0.0336738950 0.0939383587 -0.9950083686 0.0706275138 0.0502723010 -0.9962351379 0.0315035133 0.0964956721 -0.9948347169 0.0697359524 0.0513355987 -0.9962437218 -0.9735266200 0.2172888858 0.0709327873 -0.4238662373 -0.7489808168 -0.5092790481 0.4890334163 -0.6031943437 0.6300816625 0.0011442744 0.0684575511 -0.9976533738 0.1759342544 -0.2961200850 -0.9388077723 0.5084288460 -0.3526559612 -0.7855786922 0.1803344484 -0.9835925183 -0.0050244106 0.9711450954 -0.0971711659 -0.2177957028 -0.2651229335 -0.9614101712 0.0734868215 -0.2908675587 -0.5680926444 0.7698485635 0.6003619681 -0.1235812292 -0.7901222608 0.4877583777 0.4212425948 0.7646217635 -0.0679950827 -0.9155813880 -0.3963425169 -0.1218693097 0.3804090449 -0.9167534183 0.3198469656 -0.2090817353 0.9241118691 -0.6040766722 -0.0347648863 -0.7961675557 -0.2391590233 -0.6359420470 0.7337442841 -0.2315482902 -0.6370180193 0.7352505915 0.8045610155 -0.5925215979 0.0399966052 0.5654815694 -0.0073126936 0.8247285124 0.0996568189 0.7560985517 0.6468257096 -0.1534853482 0.6421898783 -0.7510222421 0.7465858631 0.1815152069 -0.6400482627 0.1414887033 -0.5278167198 -0.8374905714 -0.6001518881 -0.5560357987 -0.5750146970 -0.2655329680 0.5367700668 -0.8008558786 -0.8479745226 -0.3158356605 -0.4256607154 -0.7710779927 -0.1248556106 -0.6243795366 0.3590311971 0.2544341354 -0.8979754285 0.3518000613 0.2536806674 -0.9010454127 0.3589461360 0.2544592538 -0.8980023160 0.4646803764 -0.0593489577 0.8834873225 -0.0936980442 -0.1858365697 -0.9781029833 -0.0848782394 -0.1981168362 -0.9764964945 -0.1139067072 -0.6161845528 -0.7793214093 0.0886042479 0.1653598159 0.9822450909 0.7157418518 -0.2994441311 -0.6309095133 0.8781618139 0.0218742500 0.4778633129 0.4081808648 0.9091388916 -0.0827940667 0.9197987227 -0.1472215267 -0.3637253522 0.4277902912 0.5480276255 -0.7187914777 0.4394555551 0.5374424562 -0.7197460812 -0.0485454824 -0.6506541893 0.7578208641 -0.0481437483 -0.6506589312 0.7578424208 -0.0497862310 -0.6508243884 0.7575941834 -0.0495883120 -0.6508279094 0.7576041391 -0.0496805047 -0.6508527977 0.7575767177 0.3639465212 -0.0156358057 -0.9312885972 0.9432758547 0.2503095031 -0.2181188085 -0.4285924441 0.5268803422 0.7339656817 -0.4289834726 0.5264547012 0.7340426607 -0.4345468107 0.5250512915 0.7317719663 -0.7262317343 0.3025682883 0.6172842935 -0.0362814175 0.2405688418 -0.9699537572 0.0041102685 0.2892685778 -0.9572391528 0.0163333736 0.3096376334 -0.9507143403 0.2013691680 0.3973544326 -0.8952987842 0.1078126696 0.8494474565 -0.5165418153 -0.3693020675 -0.1432360304 -0.9182044557 -0.2700005351 0.0784244573 -0.9596610420 -0.3530755066 -0.2886879735 0.8899420995 -0.3215957263 -0.9253117223 -0.2009338336 0.2932607338 -0.5837357876 -0.7571331932 -0.0298842040 -0.6451773532 -0.7634481759 0.2668504132 0.3719926025 -0.8890513825 0.3191396076 0.1144403262 -0.9407727263 -0.3964368414 0.0135279654 -0.9179623222 -0.3971862340 0.0123201702 -0.9176553323 -0.3732304358 0.0502492400 -0.9263768432 -0.3734479866 0.0499578317 -0.9263049262 0.1842541607 -0.3894796435 0.9024167616 -0.2693891402 0.0358330262 -0.9623645283 -0.2120075972 0.0192422246 -0.9770785616 -0.0860933932 -0.1622265176 0.9829905822 0.6306470217 -0.6960193605 -0.3432803283 0.6343760445 -0.6933635414 -0.3417806805 -0.2452326449 0.8945702088 -0.3736376473 -0.4035370215 0.9128032729 0.0628335682 -0.5502992223 -0.7400338830 0.3866789597 0.1735311135 0.3615627978 -0.9160563825 0.1744386884 0.3463889508 -0.9217298079 0.3688293574 -0.7351870238 -0.5687397868 -0.4895738169 -0.5444956399 -0.6810594512 0.0874889204 0.4826730606 0.8714197642 0.0729882641 0.4577564175 0.8860766195 0.2545705181 0.7718912540 -0.5825613644 0.2177886754 0.8018546785 -0.5564145644 -0.1614348542 -0.9838696561 0.0770667741 -0.0928275353 0.9011146135 0.4235274513 -0.4452222197 -0.8639965806 -0.2351320560 0.7007707013 -0.1018119982 0.7060840894 0.7780988786 -0.0149320921 0.6279643045 -0.1273521033 -0.6337175166 0.7630095353 -0.1228396664 -0.6298741456 0.7669217542 -0.1273208407 -0.6337425514 0.7629939594 -0.1228094458 -0.6299735092 0.7668449763 -0.1228664584 -0.6300214058 0.7667964929 -0.0929653774 -0.6040529565 0.7915032940 -0.1219643282 -0.6310541082 0.7660909967 -0.0935075187 -0.6037193749 0.7916939183 -0.0933860871 -0.6036238985 0.7917810479 -0.0310398483 0.6017030479 0.7981165140 0.5127456706 0.8092109263 -0.2868266968 0.9208305707 0.2509966658 0.2984488799 -0.0789224585 0.2649708281 -0.9610211786 -0.0744887513 0.2682346658 -0.9604694633 -0.0701652748 0.2713440659 -0.9599214718 0.3275192198 0.4936380509 -0.8056380300 0.6858735522 0.7189647935 0.1125481942 -0.1523927526 -0.6449740519 0.7488557413 -0.1524408890 -0.6449520293 0.7488649113 -0.1524543518 -0.6449496859 0.7488641888 -0.1524062495 -0.6449552038 0.7488692277 -0.1524368846 -0.6449516976 0.7488660120 -0.1524568545 -0.6449493761 0.7488639461 -0.1524536035 -0.6449497505 0.7488642855 -0.1523870926 -0.6449574097 0.7488712263 -0.1524021247 -0.6449556787 0.7488696581 0.0626439632 0.755245522