<?xml version="1.0"?>
<VTKFile type="UnstructuredGrid" version="0.1" byte_order="LittleEndian">
  <UnstructuredGrid>
    <FieldData>
      <DataArray type="Float32" Name="TIME"  NumberOfTuples="1" format="ascii"> 6.0499999999 </DataArray>
      <DataArray type="Int32"   Name="STEP"  NumberOfTuples="1" format="ascii"> 605000 </DataArray>
    </FieldData>
    <Piece NumberOfPoints="399" NumberOfCells="399">
      <Points>
        <DataArray type="Float32" NumberOfComponents="3" format="ascii">
 0.4248652633 0.2068255356 0.0759431009 0.5299832409 0.1286328859 0.0400907875 0.5050734156 0.1472907492 0.1825917840 0.6403307865 0.1082663859 0.1124597136 0.5396124850 0.3646967293 0.2040009241 0.5528625826 0.3591025243 0.2072268944 0.5678908804 0.4472844617 0.1939272152 0.7522015590 0.1787391942 0.1457377412 0.7585133380 0.1855917049 0.1501547965 0.6781371226 0.4551491186 0.1694662082 0.8496088733 0.2321594060 0.1150671356 0.7816290716 0.3733979925 0.0369727116 0.7953317092 0.3703150193 0.0373492392 0.8168259411 0.3857437966 0.0431750193 0.8042876340 0.3963507227 0.2240357675 0.8177014533 0.3880444397 0.2261942348 0.8970056856 0.3686631065 0.1723159308 0.7489580527 0.3245513449 0.6726909161 0.7715940699 0.2992916107 0.6582654121 0.7860265560 0.3638990781 0.5621534340 0.8677399856 0.6052370771 0.5111382475 0.9118156802 0.5556473989 0.5587200368 0.8933347433 0.6065761978 0.4947006231 0.9262233978 0.5446446577 0.5458338407 0.9417328810 0.3093604866 0.5254685116 0.9349241888 0.3343188836 0.5344050737 0.9466582706 0.4740598507 0.4508201058 0.2426831928 0.7997986936 0.0414070121 0.2550043624 0.8173396147 0.0914574613 0.0745409509 0.9091237819 0.1097906200 0.1543237716 0.7223197608 0.0815085370 0.0388483592 0.8885768763 0.1662307829 0.0554835091 0.8047840507 0.1553463600 0.0622456496 0.7985059484 0.1588806372 0.1716660106 0.7198413318 0.1453822807 0.1846705831 0.8263779294 0.1958310249 0.5696633500 0.7614166463 0.2455277240 0.6836965709 0.7584636743 0.2617672787 0.6518277541 0.7389199918 0.1620810380 0.7064507114 0.8129151324 0.2796415406 0.6573959659 0.7424565192 0.1621263052 0.6559156731 0.7439888954 0.1560630505 0.6050552844 0.8504653478 0.2446686438 0.6094921611 0.8548464823 0.2417821194 0.5207967193 0.7623145598 0.0984627058 0.7326515364 0.8581097752 0.2193667774 0.7273904932 0.8568457999 0.2066721554 0.5647770790 0.8549312660 0.1613298614 0.5655447315 0.8555399778 0.1539491844 0.1730876782 0.4807040901 0.3236713235 0.1676973766 0.4846861770 0.4415935413 0.1372092112 0.6603891025 0.2434474654 0.0843619253 0.6890417530 0.2636713645 0.1610016147 0.6613729431 0.2414232220 0.2576845862 0.4522146787 0.3447874638 0.2908204881 0.4616814219 0.4187227184 0.2909881654 0.5655097589 0.4523295597 0.3086334852 0.4589965221 0.2813329755 0.1182083804 0.7733040850 0.4080898045 0.2713208973 0.7854265005 0.2555512226 0.4240756363 0.5343447164 0.4164829819 0.4308563930 0.5455606908 0.4205676231 0.2460004663 0.8876089218 0.3715553290 0.3711229495 0.8402723120 0.4486938366 0.3884537831 0.8571714879 0.4473816959 0.4440473457 0.9114116647 0.2749315452 0.5616925290 0.7792381908 0.4616578366 0.7554644274 0.3393622744 0.5253686030 0.7491435040 0.3251165261 0.5221874210 0.7310381138 0.1923237651 0.5211111996 0.6605265042 0.0750018527 0.2089066453 0.6490922091 0.1078240791 0.2421729118 0.6082328759 0.1071851307 0.3161806308 0.5368086352 0.0942203447 0.3297718828 0.6497675347 0.8867017079 0.4452708624 0.6558290632 0.9007448480 0.3525089454 0.6572084474 0.9097054976 0.3464138688 0.7437355506 0.9446354698 0.5283423860 0.6975299503 0.9102990801 0.3310050957 0.7118971782 0.2412329456 0.2823343454 0.6923347450 0.1618255606 0.4376722914 0.7639627062 0.3793137582 0.3440303018 0.7707361781 0.3872260513 0.3523741677 0.5690857257 0.3189437426 0.3113897438 0.5335521629 0.2357776116 0.4478721985 0.4819231748 0.2672514046 0.3471249280 0.4709354569 0.3273644497 0.5039597443 0.4582443827 0.3355683526 0.5055514695 0.3861283874 0.4139791661 0.4441340036 0.5795579183 0.5972597964 0.5628805830 0.1272838582 0.2954926757 0.0794084274 0.1210210772 0.2920261267 0.0845420969 0.1781399192 0.3772365335 0.0528340814 0.1491833964 0.4388049420 0.0568123216 0.0950507782 0.4146557948 0.1045548695 0.2077567188 0.4386277177 0.0527659958 0.1964206799 0.4344288699 0.0567133845 0.2718641739 0.5419342114 0.0599529013 0.1116348049 0.4730200813 0.1348037158 0.1123436097 0.4827929099 0.1420340674 0.1047359928 0.4920116881 0.1450391667 0.0995438614 0.5073286559 0.1534461558 0.1196632795 0.6091649158 0.0768635809 0.1243072349 0.6141220060 0.0785443057 0.0731064722 0.6660888962 0.2039462464 0.0764847409 0.6738821659 0.1942227397 0.1368994210 0.3952855505 0.2410308784 0.2422137461 0.3041293239 0.2229848089 0.2365971248 0.2958153578 0.2228489997 0.2487073772 0.3044901774 0.2244123606 0.2293360716 0.2902095157 0.2219686189 0.2433837207 0.2948296403 0.2245378205 0.2197450284 0.2869285585 0.2202325851 0.2548637536 0.3066658145 0.2255151069 0.2368439558 0.2880814985 0.2239874989 0.2496218642 0.2953277265 0.2258880817 0.2609604871 0.3107899080 0.2263364194 0.2673071571 0.3172674024 0.2268950273 0.2743130638 0.3269069140 0.2271859414 0.0603284719 0.3238589317 0.2405527532 0.2818537188 0.3248944203 0.2291698462 0.2734198226 0.3270488663 0.3139750765 0.2819441935 0.3344277948 0.3145361546 0.0744066791 0.2508622511 0.2704874474 0.0724373884 0.1488438781 0.2300768760 0.1130175351 0.0685979853 0.2994124278 0.1289117311 0.0610856436 0.3107430001 0.2422541696 0.1318700374 0.3407273083 0.2508586888 0.1370574192 0.3419972571 0.2667445169 0.1556162184 0.3433602429 0.2741736285 0.1652456540 0.3438921595 0.2824447499 0.1696901646 0.3451598508 0.8679171446 0.1866464652 0.4388067654 0.8336793422 0.1057844119 0.4125786883 0.7587803712 0.1533924386 0.5977288604 0.7548257500 0.1422556826 0.5935157581 0.7470110287 0.1331163933 0.5912825284 0.2973203721 0.2801235528 0.5031617632 0.2898213626 0.2700269681 0.4140877281 0.2535000757 0.3450426036 0.3698641125 0.3102821601 0.3803418167 0.4286204960 0.6312884938 0.7388037035 0.5144372311 0.6934340071 0.6467633060 0.3835482316 0.7179963775 0.8411238212 0.5228715381 0.7601125656 0.7119198160 0.4431577923 0.7150690016 0.7763956084 0.3773374500 0.7224929049 0.7765644876 0.3764740067 0.7217499027 0.7830364190 0.3798922191 0.5481885515 0.5178814201 0.2034166665 0.6016774580 0.5231821278 0.2544422255 0.6024653482 0.5427591984 0.2596857891 0.6200442598 0.5473508126 0.0836205520 0.6262685055 0.5623858642 0.0836989277 0.6399074465 0.5592329639 0.0832589856 0.7413571621 0.6640251089 0.2510474335 0.8187180106 0.4748240659 0.2427191432 0.8265622334 0.4850385085 0.2453616604 0.7524098605 0.6663462306 0.2524263491 0.8342698961 0.4949643952 0.2478056053 0.7588461990 0.7526343109 0.1137501543 0.7644311229 0.6690107520 0.2538325259 0.7782263842 0.6723035684 0.2552960041 0.8026222605 0.7665644448 0.1615342525 0.8794317205 0.6238432950 0.0942665280 0.9217435098 0.5592538267 0.1912947336 0.8981110345 0.6354674666 0.0942530076 0.9265946213 0.6781197870 0.2684893402 0.9125156525 0.7262494742 0.2334572511 0.9396911234 0.6711487507 0.2630043379 0.3658526222 0.5765587222 0.0833473600 0.4803352592 0.7324424371 0.0279605605 0.4430330581 0.6659637498 0.0961073130 0.4495918168 0.6639638431 0.0952668822 0.4523358271 0.6598790747 0.0965933722 0.3894152008 0.1711526878 0.4216738597 0.3343308974 0.0835967849 0.4717569081 0.1711629870 0.1840696950 0.3885514230 0.2163987427 0.1306968236 0.4587594026 0.1403173053 0.0872420110 0.4244186317 0.9285702656 0.4500574742 0.5810549152 0.2542665490 0.1549644363 0.0768240784 0.2905345843 0.1241733802 0.1289607515 0.3212501125 0.0796917809 0.1134331994 0.3626136751 0.1664949959 0.0989913313 0.3618117303 0.1720329519 0.1001077638 0.3650573936 0.1699176018 0.1024755303 0.3680820341 0.1736262410 0.1065979074 0.3291204688 0.2036825700 0.1572356920 0.3370105210 0.2091297993 0.1616362057 0.0617468803 0.1503414299 0.5057995634 0.1851546082 0.1663330259 0.5386187514 0.1499010067 0.2658897330 0.5712991848 0.1483449733 0.2522235765 0.4787905421 0.0408595449 0.9382736771 0.1632800910 0.1579123045 0.9508840022 0.1726202453 0.1685813801 0.9468863977 0.1683300986 0.4623077406 0.4848417688 0.1661080663 0.4577481008 0.4752238781 0.1662387290 0.5258200239 0.3954505599 0.2669791669 0.8807307534 0.5610009417 0.0484159735 0.8724850783 0.5657494508 0.0455653098 0.8788724252 0.5639575255 0.0436099348 0.9528860269 0.5564840049 0.0824625478 0.0848631005 0.9509150051 0.2972594124 0.0909322811 0.9527348547 0.2984104635 0.1709237007 0.9291520048 0.3642661879 0.7712013372 0.0774326524 0.2849989921 0.7320445522 0.0975392115 0.3049635026 0.7245536597 0.0995462375 0.3031239817 0.8351613737 0.1252679724 0.3223784570 0.8416795309 0.1387116510 0.3278999076 0.7707171520 0.1908863267 0.2038470302 0.7747343245 0.1947193298 0.2066775371 0.3426297548 0.1902175882 0.5344587320 0.3550249989 0.1906345019 0.5362025330 0.4140013704 0.2829445096 0.5664153082 0.9549023882 0.6061793172 0.3610205489 0.8663842959 0.6117987965 0.4001128614 0.8999179241 0.4790676574 0.3659224378 0.9022708746 0.4738060719 0.3628364610 0.8960231388 0.4718838569 0.3635570196 0.9027218464 0.3807537839 0.2926235284 0.8058020326 0.0773933540 0.5900185523 0.3432517615 0.9113997944 0.0686959499 0.3482570971 0.9041870097 0.0728549500 0.2973777200 0.8399044521 0.0897858167 0.2988441293 0.8343474698 0.0890977213 0.8006527511 0.6605805552 0.3595349849 0.6844029550 0.6155010234 0.3399599321 0.6751680030 0.6201205837 0.3384223795 0.1505759406 0.9040901291 0.4534405291 0.1568613062 0.9069191067 0.4543829547 0.1183445272 0.9135207592 0.2299883304 0.1206158149 0.9131854695 0.2376249130 0.2538573607 0.3186009767 0.1147668019 0.2556201531 0.3240393280 0.1154069892 0.2607361831 0.3190395068 0.1151263724 0.2621688130 0.3245776919 0.1156876281 0.2673283691 0.3190369031 0.1154435679 0.2631777825 0.3301138598 0.1161664266 0.2685363232 0.3247194925 0.1158621393 0.3468117962 0.2670683186 0.0577853512 0.2798044213 0.4118688134 0.0597692853 0.1971447778 0.4195476181
[...]
      <PointData Scalars="overlap">
        <DataArray type="Float32" Name="overlap" format="ascii">
 0.0002252631 0.0000175340 0.0002057647 0.0000271319 0.0000864923 0.0000330726 0.0000067736 0.0000516491 0.0002478401 0.0002506978 0.0001090975 0.0000484679 0.0000727651 0.0004921741 0.0000268400 0.0002310264 0.0000930746 0.0000060971 0.0000060680 0.0001283400 0.0000224866 0.0000489536 0.0000315672 0.0000307078 0.0000235805 0.0000097678 0.0001205655 0.0000833721 0.0001926304 0.0001202169 0.0000299141 0.0000288034 0.0000077492 0.0000869455 0.0002830003 0.0000289891 0.0001988554 0.0000834161 0.0000473518 0.0000985584 0.0001043822 0.0001688616 0.0000243784 0.0000128781 0.0001826195 0.0000522676 0.0000013738 0.0000530538 0.0001661673 0.0000600337 0.0000789503 0.0002213969 0.0000634987 0.0000341055 0.0000157456 0.0000085538 0.0000551375 0.0002887713 0.0001531588 0.0000508116 0.0001168324 0.0000163392 0.0000950720 0.0000950992 0.0000264452 0.0003200825 0.0000191898 0.0000905669 0.0000912131 0.0000192284 0.0000291291 0.0000605744 0.0000071303 0.0000865027 0.0000181092 0.0000016263 0.0000080352 0.0000089275 0.0000386344 0.0001855347 0.0000087324 0.0000307617 0.0002616668 0.0001145044 0.0000377648 0.0001250412 0.0000100494 0.0000136852 0.0000040497 0.0000156699 0.0000165968 0.0000396956 0.0000069679 0.0000392707 0.0000273487 0.0001009040 0.0001226972 0.0000459988 0.0000056042 0.0000080843 0.0000275460 0.0000244743 0.0000817956 0.0000440734 0.0000532222 0.0000487726 0.0000603379 0.0000762177 0.0000622166 0.0000973982 0.0000385532 0.0000569136 0.0000139001 0.0001102957 0.0000158327 0.0000253998 0.0001250085 0.0001382396 0.0001232002 0.0000799853 0.0001380686 0.0000155810 0.0000301506 0.0000371710 0.0000324190 0.0000591873 0.0000282975 0.0000085542 0.0000406105 0.0001086599 0.0000464404 0.0000187269 0.0000023995 0.0000395222 0.0000015779 0.0000123706 0.0000048928 0.0000334262 0.0000390875 0.0000604159 0.0000185162 0.0000167118 0.0000083347 0.0000068182 0.0000120037 0.0000224040 0.0000203219 0.0000126870 0.0000104230 0.0000259862 0.0000088270 0.0001698713 0.0000139496 0.0000453981 0.0000111188 0.0000460567 0.0001709404 0.0000241056 0.0001046157 0.0002024594 0.0000361793 0.0000388883 0.0001536244 0.0000027451 0.0000400204 0.0002874986 0.0000075804 0.0000179325 0.0000144315 0.0000430280 0.0000045058 0.0000128958 0.0000078978 0.0000747108 0.0000377520 0.0000593028 0.0000611152 0.0000359024 0.0000599990 0.0000173418 0.0000351345 0.0000002691 0.0000569294 0.0000125106 0.0000176153 0.0000518788 0.0000191420 0.0000531615 0.0000302685 0.0000300157 0.0000204994 0.0000077554 0.0000283988 0.0000114058 0.0000228484 0.0000144966 0.0000044593 0.0000259472 0.0000157861 0.0000057067 0.0000675125 0.0000369702 0.0000020350 0.0000128950 0.0000076793 0.0000005192 0.0000400043 0.0000106871 0.0000494089 0.0000639111 0.0000373577 0.0002481440 0.0000715867 0.0000078625 0.0000103950 0.0000073836 0.0000071160 0.0000118058 0.0000364754 0.0000337113 0.0000538104 0.0000648145 0.0000026812 0.0000081018 0.0000881242 0.0000310341 0.0000607783 0.0000853857 0.0000026434 0.0000074529 0.0000562933 0.0000903154 0.0000005448 0.0000288874 0.0000795827 0.0001168597 0.0003505919 0.0003212828 0.0000395060 0.0000252607 0.0001374221 0.0001622062 0.0000228943 0.0000387197 0.0000069471 0.0000152705 0.0000602908 0.0000175805 0.0000222396 0.0000123842 0.0000313050 0.0000744968 0.0000535131 0.0000057804 0.0000332826 0.0000231193 0.0000207118 0.0000334323 0.0000189564 0.0000230832 0.0000277226 0.0000619658 0.0000030632 0.0000056361 0.0000216007 0.0000016375 0.0000080040 0.0000690110 0.0002010167 0.0001002778 0.0000704465 0.0000618267 0.0000253955 0.0000530119 0.0000844282 0.0000197662 0.0000510467 0.0000227556 0.0001328716 0.0000052332 0.0000218361 0.0000399222 0.0000060685 0.0000131739 0.0000072017 0.0000121012 0.0000693277 0.0000462433 0.0000084796 0.0000061556 0.0000201305 0.0000510387 0.0000427342 0.0000047491 0.0000223134 0.0000264221 0.0000096096 0.0000018358 0.0000133948 0.0000581745 0.0001162417 0.0000070512 0.0000208279 0.0000300254 0.0000081653 0.0000233903 0.0000218229 0.0000727431 0.0000746109 0.0000794092 0.0000092001 0.0000793252 0.0000033451 0.0000340772 0.0000165209 0.0000032081 0.0000092578 0.0000222604 0.0000323860 0.0000314928 0.0000290262 0.0000209606 0.0000060712 0.0000220258 0.0000136426 0.0000218754 0.0000040433 0.0000588205 0.0000080905 0.0000053571 0.0000114976 0.0000608037 0.0000874422 0.0000141857 0.0000075990 0.0000050745 0.0000504526 0.0000601821 0.0000344740 0.0000375595 0.0000593916 0.0000512126 0.0000145557 0.0000059783 0.0000103993 0.0000045979 0.0000062895 0.0000086166 0.0000098039 0.0000055381 0.0000459264 0.0000166807 0.0000076754 0.0000326068 0.0000233794 0.0000007281 0.0000053805 0.0000594704 0.0000460904 0.0000198223 0.0000226177 0.0000419016 0.0000146376 0.0000078988 0.0000069594 0.0000334786 0.0000269893 0.0000106320 0.0000221571 0.0000403884 0.0000195101 0.0000137642 0.0000140297 0.0000066059 0.0000152038 0.0000080229 0.0000100617 0.0000156013 0.0000151445 0.0000045932 0.0000049313 0.0000517350 0.0000115784 0.0000605299 0.0000295624 0.0000315404 0.0000093832 0.0000184472 0.0000045034 0.0000027943 0.0000039754 0.0000650008 0.0000060056 0.0000313264 0.0000111040 0.0000235800 0.0000132263 0.0000245230 0.0001356152
        </DataArray>
        <DataArray type="Float32" Name="contact normal" NumberOfComponents="3" format="ascii">
 0.9747554424 -0.1893141948 -0.1183721384 0.1555744861 0.9312607961 0.3294691320 -0.0006374339 0.6164443544 -0.7873982167 -0.2103077704 0.7157944040 -0.6658896402 0.1103640294 -0.0480299914 -0.9927300242 0.2338420972 -0.1107109570 -0.9659508049 0.5992056432 -0.7720068524 -0.2120330564 -0.3785339479 0.6351395709 -0.6732828349 -0.3288766028 0.6782704724 -0.6571067999 -0.1641726955 -0.9501202649 -0.2651769378 -0.8558114606 0.4668476063 0.2228004856 -0.1400033165 -0.4491055957 0.8824416328 -0.1479993537 -0.4748810918 0.8675160747 -0.1169577889 -0.3830526933 0.9162922622 -0.0083250661 0.0626801109 -0.9979989464 0.0267986382 -0.0943976164 -0.9951738155 -0.8319754664 -0.0603934312 0.5515155998 -0.4684037213 0.3948227369 -0.7903878544 -0.3784747904 -0.4904626457 -0.7849861312 0.4266453622 -0.1496880252 0.8919457551 0.4063588558 -0.1798454446 0.8958393251 -0.6620757340 -0.1481343022 -0.7346509042 0.5876635159 -0.7239371455 0.3613400082 -0.6340901478 -0.2069771990 -0.7450437058 -0.0676089790 -0.3232781617 -0.9438857220 -0.7624911364 0.1937178381 -0.6173173140 0.3124814643 -0.0294270791 0.9494679465 -0.7342370502 -0.5295580539 0.4248108069 -0.7988548252 -0.6010921724 0.0227852716 -0.0013698559 -0.9554466917 0.2951605373 0.3770212413 0.7929131077 0.4786896565 0.3335690239 -0.6196510016 -0.7104676928 0.7209806515 0.5217099382 -0.4560763538 0.7537181836 0.4852880756 -0.4431753415 0.2852026585 0.6836223593 -0.6718034783 -0.4732840609 -0.4351852801 -0.7659085910 0.2186626432 -0.1884350770 -0.9574334808 -0.6235802221 0.7261394758 -0.2896017408 -0.5201695412 0.6631040932 0.5382532954 -0.1223117999 -0.0632331746 -0.9904753350 -0.3277451792 0.7301528742 0.5995497292 -0.7229386091 0.6861784165 0.0807400036 0.4062269505 -0.7683040765 -0.4946599950 0.4403018374 -0.7260603649 -0.5281767115 0.1714136681 0.2531711659 0.9521143393 -0.4363236353 -0.6609520981 0.6105440274 -0.9456348459 -0.3248598046 -0.0155191989 0.6139397177 -0.7892923677 0.0097765678 0.5989308646 -0.8008005712 0.0005143719 0.5472188424 0.8316363988 0.0945115797 0.4998114286 0.7781988140 -0.3802566788 0.0644267404 -0.3623476262 0.9298136334 0.7572567481 -0.0105265159 0.6530324723 0.1054411673 0.2945939595 0.9497876390 -0.1809019112 0.8143275089 -0.5514936145 -0.1033724231 0.6607672095 -0.7434385227 -0.0957112382 0.2005464843 -0.9749976751 -0.2508220372 0.5934677425 0.7647773168 0.4792936102 -0.4879429619 -0.7295130576 0.2611673439 -0.8734862945 0.4108689716 -0.4050262193 0.2950857404 -0.8653774711 -0.5610670516 0.6174398106 -0.5513364162 0.6796841773 -0.6364846573 -0.3645774269 0.1152703234 -0.2602745073 -0.9586291949 0.2785768488 -0.2555819590 -0.9257822646 -0.1151294225 -0.6947392517 0.7099877381 -0.1319867226 -0.1364222486 -0.9818189625 0.1889916103 -0.3259881134 0.9262904087 0.1771371958 -0.3355327141 0.9252244115 -0.3539031021 0.6917230796 -0.6295012116 -0.5815556012 -0.3308916262 0.7431714570 -0.6850129590 -0.6446794998 0.3393310898 -0.3519583181 0.0409991676 -0.9351173245 0.2481264160 0.1400634191 -0.9585486531 0.6234795035 0.3239699333 -0.7115594079 0.9444714102 -0.0566728069 0.3236695047 0.9482903759 0.0855583402 0.3056552527 -0.4734709731 0.6020931747 -0.6428911623 -0.5584123970 0.4656548933 0.6865428721 -0.4312461047 0.6832492484 0.5892344709 0.1343173205 0.8425409707 -0.5216163054 -0.6365652337 -0.7534992292 0.1643886092 0.0926928675 -0.3335346368 0.9381698558 0.0489961666 -0.2190338441 0.9744863010 0.3163079547 0.5396106397 -0.7802369097 0.7737781337 0.4542855972 0.4414657359 0.3336554769 0.5760561229 -0.7462126815 0.2731780728 0.6214750037 -0.7342632772 0.8864808706 0.4479914747 -0.1159970025 -0.3029005333 -0.8435924783 -0.4433993657 -0.2974533042 0.9482577305 0.1110351674 -0.3437134831 0.8246705448 0.4491987690 -0.8803515334 -0.1147568289 -0.4602304292 -0.2751917348 -0.8528874919 -0.4436805554 -0.0722236868 -0.8079358240 -0.5848277039 -0.2014301595 0.9574082082 0.2068705241 -0.5934940549 0.7299769147 0.3389668284 -0.3922052916 -0.5327734921 0.7498849348 0.3396648884 0.5385648471 -0.7710873291 0.3862916484 0.5406379473 -0.7473214652 0.3396501171 0.5385639653 -0.7710944516 0.3396461405 0.5385637279 -0.7710963690 0.1126248030 -0.4601031825 0.8806933150 0.1108318651 -0.4528067239 0.8846933754 -0.0838069037 -0.9413542423 -0.3268464370 0.7067017926 -0.6148222708 -0.3500944897 0.4599557808 -0.3548447864 -0.8139569137 -0.2235076311 0.1352044608 0.9652792822 -0.2231806314 0.1347989080 0.9654116532 -0.2230410878 0.1346262401 0.9654679946 -0.2232276383 0.1348571995 0.9653926441 -0.2225763232 0.1340495386 0.9656554777 -0.2236683218 0.1354037620 0.9652141229 -0.2227693313 0.1342891809 0.9655776721 -0.2224663517 0.1339131811 0.9656997371 -0.1802087280 0.0818526052 0.9802167951 -0.2226748787 0.1341830784 0.9656142086 -0.2226596353 0.1344162287 0.9655852962 -0.2230729379 0.1349956026 0.9654090593 0.1669255666 -0.3145198258 -0.9344587387 -0.2215188228 0.1354754047 0.9656996561 0.2534592348 -0.2169815633 -0.9426968853 0.2505243703 -0.2101602656 -0.9450239164 0.4823441868 -0.3851705494 -0.7867577348 0.7374707251 0.4353337427 0.5163540084 0.4636733125 0.3371314950 -0.8193591486 0.8230585900 -0.5670165334 -0.0326620326 0.2197722374 -0.1326038483 -0.9664969649 0.2253271795 -0.1300545220 -0.9655638164 0.2248738856 -0.1264212130 -0.9661518579 0.2037518473 -0.0979202563 -0.9741133446 0.2245786830 -0.1254485594 -0.9663472844 0.1756576741 -0.7374310927 0.6521807764 0.1958840147 0.1959952352 0.9608409445 -0.0155797597 0.4234321333 -0.9057938505 -0.0707351152 0.3607702105 -0.9299684934 -0.1004561110 0.3256072312 -0.9401534453 -0.0743114756 0.1549468579 -0.9851239901 -0.3376736136 0.8585540539 0.3858256955 0.1560710318 -0.5231894297 0.8378034696 -0.3066348988 -0.9367091434 -0.1689704695 0.9258998666 0.1042724377 -0.3630932329 0.5340545182 0.5979773610 0.5976695135 -0.6750351356 -0.6277335249 -0.3876573066 -0.9195374318 0.3290379646 -0.2149067923 0.0689876651 -0.6885774201 0.7218738384 0.0714527352 -0.6715869150 0.7374723875 0.0633623871 -0.3691995834 0.9271876161 0.4348779621 0.8794781898 -0.1933889131 -0.3197013319 -0.5168028397 -0.7941699335 0.2726890770 0.5234803701 -0.8072229986 -0.0187486703 0.0079272316 0.9997928017 -0.0187585739 0.0079574982 0.9997923755 0.0753915036 -0.0381787767 0.9964228531 0.2195183933 -0.5921845052 -0.7753252136 -0.1204666580 0.3287109579 -0.9367160138 -0.1204798424 0.3287218244 -0.9367105048 0.2194898437 -0.5919965492 -0.7754768174 -0.1204915115 0.3287314416 -0.9367056288 0.1357811484 -0.0261332131 0.9903941311 0.2192794792 -0.5917304610 -0.7757393709 0.2181291499 -0.5917915018 -0.7760170696 -0.3180797033 -0.8153335817 0.4837938124 -0.2059575380 0.1752069857 0.9627481523 -0.8647634684 0.4792088416 -0.1501433643 -0.0545657740 0.3320566691 0.9416798526 -0.6879653129 0.4288410760 -0.5854904439 -0.0387321206 -0.7615576336 -0.6469387866 0.1346923532 -0.2781104311 -0.9510586512 0.6640579137 0.3246302997 -0.6735296992 -0.2386531248 -0.2963230020 0.9247904436 -0.1923027207 -0.3520425169 -0.9160162280 -0.1771636857 -0.3510684020 -0.9194367872 -0.1801673262 -0.3565764185 -0.9167295088 -0.8774163249 0.4309653787 0.2107354627 -0.5001383349 0.4190777695 -0.7577832600 0.5889325051 -0.5446857287 -0.5970560789 0.2174806764 -0.1596823481 -0.9629141722 0.9732608075 0.2296989205 0.0013440754 -0.6193135160 0.5275496394 -0.5814999113 0.9097934936 -0.4077801583 0.0774024647 0.6530845118 0.0527733892 -0.7554439687 0.1091022591 0.9771293366 0.1825238520 -0.6847307222 -0.2364539132 0.6893717320 -0.6894303250 -0.2314236898 0.6863883032 -0.6822145731 -0.2397792384 0.6907164347 -0.6643658386 -0.2351670752 0.7094466007 0.4877487617 -0.4803083019 -0.7289753635 0.7528395702 -0.6492581655 -0.1081499704 0.0332297635 0.4261971887 0.9040197670 -0.6546553469 0.4064293798 0.6373707995 -0.0726700211 -0.4846359262 -0.8716920827 -0.5033506111 -0.6987143210 0.5083664622 0.3390158868 0.2884287524 -0.8954758977 -0.2373871826 0.0128336419 -0.9713303368 -0.2615759793 -0.0587908605 -0.9633907005 0.7522865336 0.2694519773 0.6012159373 0.1439972852 -0.6094736899 0.7796195247 -0.4401257067 0.8365773201 0.3262326622 0.2696940915 0.7976523704 0.5394587964 0.2716262534 0.8386178356 0.4721644885 0.2090916528 0.6355625776 -0.7431964012 -0.3845822066 0.7536674025 -0.5329934079 -0.2919761058 0.6684386425 0.6840612069 -0.2518891848 0.6666778437 0.7014930444 -0.8247829748 0.4462148639 0.3473115888 -0.1772984655 0.9573738295 0.2280364111 0.3002268847 0.5922464786 -0.7477351980 0.2806556140 0.5827387907 -0.7626584610 -0.2984419747 0.4463299362 -0.8436361632 -0.3000439844 0.4872087608 -0.8201226926 -0.1923658394 -0.5414378600 0.8184377970 -0.1957695402 -0.5312656842 0.8242760823 -0.4403276244 0.6284702239 -0.6411994704 0.0843764406 0.9896458230 0.1161109869 -0.6559060847 -0.6631169624 0.3606426240 -0.6477170664 -0.7391526279 -0.1847051559 0.6216482235 -0.6940020158 -0.3632006171 -0.4377071457 0.6553996179 -0.6155191268 -0.1216631273 0.3523873919 -0.9279122855 -0.2329602966 0.2568595966 -0.9379513036 -0.4786223964 0.7628191033 -0.4347730641 -0.1737032695 0.6567033189 0.7338718724 -0.7734242805 -0.6004232616 -0.2032407174 -0.7640775287 -0.6230887283 -0.1671704721 0.2986760124 0.2188553302 -0.9289214090 0.2974133030 0.2166324641 -0.9298471394 -0.2439385977 0.3579340738 -0.9013196766 0.3978148401 0.4542161381 -0.7971392933 0.3423486741 0.4963734548 -0.7977535827 -0.3679617747 0.7958035486 0.4809374641 -0.3649433025 0.8040829315 0.4693261396 -0.8854927998 0.3731738530 0.2768461251 -0.8869884323 0.3678066767 0.2792306746 0.0322039469 0.0956234788 -0.9948965052 0.0299040136 0.0983250839 -0.9947049451 0.0681937666 0.0531640509 -0.9962545829 0.0336705964 0.0939389656 -0.9950084229 0.0706243403 0.0502729496 -0.9962353302 0.0315002158 0.0964962669 -0.9948347636 0.0697327814 0.0513362396 -0.9962439107 -0.9735278957 0.2172835053 0.0709317601 -0.4238736085 -0.7489779861 -0.5092770762 0.4890294093 -0.6031942656 0.6300848472 0.0011451221 0.0684565814 -0.9976534394 0.1759363358 -0.2961184708 -0.9388078914 0.5084310066 -0.3526578344 -0.7855764529 0.1803345830 -0.9835924915 -0.0050248332 0.9711420989 -0.0971709400 -0.2178091647 -0.2651240209 -0.9614107569 0.0734752345 -0.2908625183 -0.5680925688 0.7698505236 0.6003663316 -0.1235711404 -0.7901205232 0.4877575028 0.4212436582 0.7646217358 -0.0680048805 -0.9155795737 -0.3963450269 -0.1219264849 0.3803869502 -0.9167549838 0.3198503964 -0.2090756943 0.9241120484 -0.6040765101 -0.0347619343 -0.7961678076 -0.2391609744 -0.6359413983 0.7337442104 -0.2315502347 -0.6370173797 0.7352505333 0.8045628401 -0.5925188844 0.0400000992 0.5654672249 -0.0073231948 0.8247382545 0.0996599042 0.7560940038 0.6468305504 -0.1534762556 0.6421886853 -0.7510251203 0.7465901366 0.1815148258 -0.6400433860 0.1414885817 -0.5278154632 -0.8374913839 -0.6001548098 -0.5560306613 -0.5750166155 -0.2655280489 0.5367713031 -0.8008566809 -0.8479728834 -0.3158350247 -0.4256644525 -0.7710794969 -0.1248548604 -0.6243778290 0.3590314257 0.2544342598 -0.8979753019 0.3518002575 0.2536808153 -0.9010452945 0.3589463333 0.2544593753 -0.8980022028 0.4646797294 -0.0593406498 0.8834882208 -0.0937016475 -0.1858339287 -0.9781031399 -0.0848818050 -0.1981142060 -0.9764967182 -0.1139176887 -0.6161850165 -0.7793194375 0.0885993641 0.1653785863 0.9822423712 0.7157449428 -0.2994629464 -0.6308970761 0.8781510636 0.0218787208 0.4778828633 0.4081569836 0.9091507967 -0.0827810697 0.9198105596 -0.1472145276 -0.3636982502 0.4277942070 0.5480240559 -0.7187918687 0.4394593317 0.5374388118 -0.7197464966 -0.0485474118 -0.6506537393 0.7578211269 -0.0481456808 -0.6506584816 0.7578426840 -0.0497881937 -0.6508239377 0.7575944416 -0.0495902843 -0.6508274587 0.7576043972 -0.0496824960 -0.6508523467 0.7575769746 0.3639481312 -0.0156264617 -0.9312881249 0.9432773353 0.2503026684 -0.2181202486 -0.4285756421 0.5269037594 0.7339586823 -0.4289666681 0.5264781264 0.7340356804 -0.4345300539 0.5250746525 0.7317651546 -0.7262250806 0.3025852263 0.6172838190 -0.0362791078 0.2405690203 -0.9699537993 0.0041124293 0.2892686083 -0.9572391343 0.0163356430 0.3096377892 -0.9507142506 0.2013697955 0.3973487687 -0.8953011569 0.1078195763 0.8494450397 -0.5165443481 -0.3692995312 -0.1432367116 -0.9182053696 -0.2699977560 0.0784228561 -0.9596619547 -0.3530757356 -0.2886964261 0.8899392667 -0.3215940081 -0.9253118302 -0.2009360865 0.2932620372 -0.5837317351 -0.7571358128 -0.0298846793 -0.6451740342 -0.7634509621 0.2668487256 0.3719979986 -0.8890496312 0.3191479963 0.1144515673 -0.9407685131 -0.3964204003 0.0135372708 -0.9179692852 -0.3971697450 0.0123295983 -0.9176623424 -0.3732132478 0.0502583814 -0.9263832721 -0.3734307577 0.0499670481 -0.9263113749 0.1842428815 -0.3894847442 0.9024168630 -0.2693620338 0.0358340763 -0.9623720766 -0.2119804041 0.0192437922 -0.9770844307 -0.0860972591 -0.1622321233 0.9829893184 0.6306146690 -0.6960716806 -0.3432336737 0.6343445906 -0.6934154614 -0.3417337241 -0.2452333533 0.8945679087 -0.3736426890 -0.4035266176 0.9128077265 0.0628356856 -0.5503003193 -0.7400325740 0.3866799037 0.1735314168 0.3615625327 -0.9160564297 0.1744389863 0.3463887063 -0.9217298434 0.3688359592 -0.7351872506 -0.5687352123 -0.4895683847 -0.5444975043 -0.6810618654 0.0874881385 0.4826746302 0.8714189733 0.0729872768 0.4577585472 0.8860756006 0.2545700633 0.7718884787 -0.5825652403 0.2177879899 0.8018518135 -0.5564189615 -0.1614258406 -0.9838720921 0.0770545544 -0.0928318280 0.9011124729 0.4235310649 -0.4452302045 -0.8639930468 -0.2351299215 0.7007693155 -0.1018088451 0.7060859193 0.7781011867 -0.0149246450 0.6279616216 -0.1273749348 -0.6337191872 0.7630043367 -0.1228624757 -0.6298758658 0.7669166876 -0.1273437091 -0.6337442507 0.7629887315 -0.1228322925 -0.6299752594 0.7668398793 -0.1228893401 -0.6300231844 0.7667913649 -0.0929882591 -0.6040552101 0.7914988862 -0.1219872808 -0.6310559051 0.7660858620 -0.0935304289 -0.6037216423 0.7916894830 -0.0934090243 -0.6036261905 0.7917765950 -0.0310404585 0.6017003606 0.7981185163 0.5127583970 0.8092018031 -0.2868296848 0.9208301992 0.2509973359 0.2984494624 -0.0789400403 0.2649884806 -0.9610148673 -0.0745063836 0.2682523591 -0.9604631542 -0.0701829424 0.2713618082 -0.9599151648 0.3275293223 0.4936519569 -0.8056254021 0.6858879220 0.7189517700 0.1125438175 -0.1523935872 -0.6449723814 0.7488570102 -0.1524417236 -0.6449503588 0.7488661801 -0.1524551863 -0.6449480154 0.7488654576 -0.1524070837 -0.6449535333 0.7488704966 -0.1524377191 -0.6449500271 0.7488672809 -0.1524576887 -0.6449477056 0.7488652150 -0.1524544378 -0.6449480801 0.7488655543 -0.1523879271 -0.6449557392 0.7488724952 -0.1524029590 -0.6449540083 0.7488709270 0.0626358899 0.755246895