<?xml version="1.0"?>
<VTKFile type="UnstructuredGrid" version="0.1" byte_order="LittleEndian">
  <UnstructuredGrid>
    <FieldData>
      <DataArray type="Float32" Name="TIME"  NumberOfTuples="1" format="ascii"> 6.7999999999 </DataArray>
      <DataArray type="Int32"   Name="STEP"  NumberOfTuples="1" format="ascii"> 680000 </DataArray>
    </FieldData>
    <Piece NumberOfPoints="399" NumberOfCells="399">
      <Points>
        <DataArray type="Float32" NumberOfComponents="3" format="ascii">
 0.4248652669 0.2068256567 0.0759431711 0.5299832768 0.1286330134 0.0400908452 0.5050734576 0.1472908384 0.1825918837 0.6403308313 0.1082665156 0.1124597722 0.5396125036 0.3646968527 0.2040009992 0.5528625958 0.3591026521 0.2072269899 0.5678908763 0.4472846063 0.1939272890 0.7522016023 0.1787393316 0.1457378009 0.7585133808 0.1855918402 0.1501548576 0.6781371350 0.4551492861 0.1694662791 0.8496089130 0.2321595609 0.1150671771 0.7816290866 0.3733981680 0.0369727280 0.7953317250 0.3703151976 0.0373492548 0.8168259549 0.3857439755 0.0431750261 0.8042876516 0.3963508700 0.2240358866 0.8177014701 0.3880445962 0.2261943259 0.8970057155 0.3686632710 0.1723159697 0.7489581989 0.3245514610 0.6726918838 0.7715942097 0.2992916958 0.6582664435 0.7860266093 0.3638988942 0.5621542612 0.8677399911 0.6052367603 0.5111383149 0.9118158079 0.5556472132 0.5587203164 0.8933347755 0.6065758013 0.4947007222 0.9262234188 0.5446444121 0.5458340302 0.9417329026 0.3093602003 0.5254693717 0.9349242125 0.3343186182 0.5344058527 0.9466582242 0.4740593591 0.4508204648 0.2426832516 0.7997988639 0.0414070080 0.2550044147 0.8173397539 0.0914574738 0.0745409861 0.9091238472 0.1097907398 0.1543238301 0.7223198663 0.0815085411 0.0388484159 0.8885769430 0.1662309058 0.0554835874 0.8047841233 0.1553464355 0.0622457269 0.7985060184 0.1588807102 0.1716660852 0.7198413975 0.1453823167 0.1846706593 0.8263780036 0.1958310545 0.5696635676 0.7614169011 0.2455279344 0.6836968180 0.7584638553 0.2617673124 0.6518279219 0.7389200645 0.1620811420 0.7064510092 0.8129153204 0.2796414818 0.6573961415 0.7424565971 0.1621264088 0.6559158310 0.7439889587 0.1560631254 0.6050556029 0.8504655312 0.2446685614 0.6094924745 0.8548466720 0.2417820365 0.5207968880 0.7623145869 0.0984627744 0.7326518524 0.8581098753 0.2193666140 0.7273907929 0.8568458626 0.2066720184 0.5647773514 0.8549313676 0.1613298051 0.5655449929 0.8555400780 0.1539491266 0.1730877321 0.4807040512 0.3236717217 0.1676972862 0.4846862552 0.4415939499 0.1372093461 0.6603890005 0.2434475665 0.0843620377 0.6890416523 0.2636714192 0.1610017461 0.6613727981 0.2414233155 0.2576846302 0.4522146901 0.3447879902 0.2908204495 0.4616815261 0.4187232668 0.2909880935 0.5655098736 0.4523301155 0.3086335988 0.4589964614 0.2813335511 0.1182082954 0.7733041889 0.4080898455 0.2713209990 0.7854264469 0.2555513511 0.4240756068 0.5343448169 0.4164836222 0.4308563642 0.5455607854 0.4205682489 0.2460004546 0.8876089520 0.3715553216 0.3711228295 0.8402724913 0.4486941638 0.3884537110 0.8571716018 0.4473817826 0.4440474319 0.9114116364 0.2749317057 0.5616924259 0.7792383757 0.4616583839 0.7554643744 0.3393624607 0.5253691222 0.7491433843 0.3251167536 0.5221878757 0.7310372511 0.1923241289 0.5211104094 0.6605264941 0.0750018285 0.2089068082 0.6490922607 0.1078241316 0.2421730181 0.6082329353 0.1071852791 0.3161807826 0.5368086783 0.0942205502 0.3297720883 0.6497678868 0.8867014046 0.4452708168 0.6558295046 0.9007447591 0.3525089185 0.6572088643 0.9097054255 0.3464138600 0.7437356448 0.9446352917 0.5283425469 0.6975303852 0.9102991586 0.3310051333 0.7118973554 0.2412333039 0.2823346017 0.6923349329 0.1618258087 0.4376725191 0.7639628396 0.3793141176 0.3440307447 0.7707363066 0.3872264238 0.3523745590 0.5690858562 0.3189441272 0.3113900807 0.5335523522 0.2357778427 0.4478725173 0.4819232864 0.2672516954 0.3471252948 0.4709356342 0.3273645919 0.5039602034 0.4582445534 0.3355684772 0.5055519567 0.3861285260 0.4139793553 0.4441345738 0.5795580807 0.5972599236 0.5628813172 0.1272838097 0.2954928813 0.0794087032 0.1210210457 0.2920263171 0.0845423911 0.1781397631 0.3772366916 0.0528340863 0.1491831970 0.4388050670 0.0568122284 0.0950506784 0.4146559777 0.1045549091 0.2077564478 0.4386278040 0.0527658952 0.1964204142 0.4344289370 0.0567132864 0.2718639817 0.5419342183 0.0599528045 0.1116346302 0.4730201545 0.1348037244 0.1123434485 0.4827929800 0.1420340784 0.1047358348 0.4920117519 0.1450392040 0.0995437174 0.5073287123 0.1534462153 0.1196631492 0.6091650365 0.0768636229 0.1243071093 0.6141221234 0.0785443442 0.0731064998 0.6660890084 0.2039464009 0.0764847328 0.6738822625 0.1942228946 0.1368994616 0.3952855545 0.2410310969 0.2422139084 0.3041294664 0.2229849582 0.2365972960 0.2958154944 0.2228491388 0.2487075398 0.3044903248 0.2244125075 0.2293362484 0.2902096459 0.2219687528 0.2433838937 0.2948297817 0.2245379550 0.2197452079 0.2869286810 0.2202327183 0.2548639144 0.3066659668 0.2255152542 0.2368441358 0.2880816337 0.2239876260 0.2496220364 0.2953278737 0.2258882138 0.2609606438 0.3107900656 0.2263365702 0.2673073072 0.3172675660 0.2268951851 0.2743132035 0.3269070847 0.2271861109 0.0603285947 0.3238588533 0.2405528589 0.2818538617 0.3248945960 0.2291700087 0.2734198962 0.3270489425 0.3139753134 0.2819442586 0.3344278796 0.3145364044 0.0744068781 0.2508621403 0.2704874389 0.0724376616 0.1488437815 0.2300767061 0.1130179334 0.0685978944 0.2994122079 0.1289121171 0.0610855528 0.3107427981 0.2422544610 0.1318700378 0.3407272587 0.2508589735 0.1370574280 0.3419972189 0.2667447798 0.1556162435 0.3433602350 0.2741738796 0.1652456873 0.3438921693 0.2824449956 0.1696902056 0.3451598686 0.8679167359 0.1866465779 0.4388069040 0.8336790063 0.1057844852 0.4125787952 0.7587789757 0.1533930926 0.5977284300 0.7548243691 0.1422563316 0.5935153280 0.7470096533 0.1331170413 0.5912820819 0.2973211619 0.2801231272 0.5031618424 0.2898216108 0.2700269403 0.4140877845 0.2535000311 0.3450427700 0.3698646440 0.3102824731 0.3803417323 0.4286208934 0.6312882468 0.7388038198 0.5144366525 0.6934344273 0.6467633145 0.3835480595 0.7179961580 0.8411238591 0.5228713920 0.7601126993 0.7119197868 0.4431579544 0.7150695574 0.7763955858 0.3773373251 0.7224934636 0.7765644785 0.3764739015 0.7217504481 0.7830364006 0.3798921068 0.5481886831 0.5178815989 0.2034166843 0.6016775638 0.5231822900 0.2544422428 0.6024654623 0.5427593706 0.2596858383 0.6200444596 0.5473510003 0.0836205818 0.6262687081 0.5623860507 0.0836989605 0.6399076469 0.5592331487 0.0832590289 0.7413573079 0.6640252532 0.2510475417 0.8187181239 0.4748241979 0.2427192954 0.8265623466 0.4850386409 0.2453618113 0.7524100054 0.6663463748 0.2524264654 0.8342700093 0.4949645280 0.2478057548 0.7588464309 0.7526344685 0.1137503356 0.7644312668 0.6690108961 0.2538326511 0.7782265270 0.6723037126 0.2552961396 0.8026224568 0.7665645698 0.1615344205 0.8794319392 0.6238434246 0.0942666605 0.9217436229 0.5592539699 0.1912949197 0.8981112475 0.6354675897 0.0942531636 0.9265947620 0.6781198999 0.2684895473 0.9125158161 0.7262495986 0.2334574568 0.9396912637 0.6711488611 0.2630045403 0.3658525857 0.5765590771 0.0833472138 0.4803354457 0.7324428149 0.0279608414 0.4430331231 0.6659640374 0.0961074151 0.4495918807 0.6639641268 0.0952669876 0.4523358856 0.6598793525 0.0965934699 0.3894154618 0.1711527312 0.4216740079 0.3343312998 0.0835966706 0.4717570660 0.1711632228 0.1840693734 0.3885513729 0.2163990199 0.1306965454 0.4587593340 0.1403176209 0.0872415986 0.4244185064 0.9285701100 0.4500573734 0.5810555158 0.2542664911 0.1549647365 0.0768239844 0.2905342606 0.1241737637 0.1289609013 0.3212496061 0.0796919904 0.1134336198 0.3626136470 0.1664948417 0.0989913354 0.3618117091 0.1720328008 0.1001077579 0.3650573676 0.1699174492 0.1024755308 0.3680820122 0.1736260910 0.1065979030 0.3291205473 0.2036828998 0.1572354503 0.3370106262 0.2091301070 0.1616359480 0.0617469738 0.1503409384 0.5057992696 0.1851546534 0.1663326209 0.5386185681 0.1499009255 0.2658892404 0.5712991342 0.1483449865 0.2522232364 0.4787904443 0.0408595819 0.9382736552 0.1632801989 0.1579123544 0.9508839602 0.1726202222 0.1685814263 0.9468863593 0.1683300663 0.4623076788 0.4848421651 0.1661080706 0.4577480271 0.4752243115 0.1662387430 0.5258198189 0.3954507997 0.2669791762 0.8807308221 0.5610012903 0.0484159995 0.8724851593 0.5657498132 0.0455653250 0.8788725089 0.5639578878 0.0436099624 0.9528860585 0.5564841762 0.0824626672 0.0848633664 0.9509151434 0.2972593854 0.0909325264 0.9527350322 0.2984104611 0.1709239290 0.9291524047 0.3642662935 0.7712012964 0.0774327464 0.2849989571 0.7320445349 0.0975393115 0.3049635119 0.7245536403 0.0995463400 0.3031240019 0.8351613773 0.1252679886 0.3223784781 0.8416795412 0.1387116576 0.3278999414 0.7707170976 0.1908865710 0.2038471628 0.7747342741 0.1947195699 0.2066776699 0.3426307889 0.1902171317 0.5344597455 0.3550259856 0.1906340900 0.5362035577 0.4140020225 0.2829444406 0.5664159966 0.9549029884 0.6061792095 0.3610204314 0.8663849561 0.6117988862 0.4001128660 0.8999183108 0.4790676389 0.3659224859 0.9022712376 0.4738060573 0.3628365151 0.8960234957 0.4718838641 0.3635570569 0.9027219441 0.3807537277 0.2926236161 0.8058007200 0.0773941566 0.5900182472 0.3432519960 0.9113997726 0.0686960571 0.3482573346 0.9041869911 0.0728550624 0.2973778210 0.8399045233 0.0897858543 0.2988442202 0.8343475387 0.0890977562 0.8006528507 0.6605806515 0.3595351052 0.6844030966 0.6155011282 0.3399599002 0.6751681347 0.6201206777 0.3384223636 0.1505762926 0.9040903743 0.4534404354 0.1568616432 0.9069193607 0.4543829181 0.1183446432 0.9135207583 0.2299883223 0.1206159386 0.9131854817 0.2376249031 0.2538572632 0.3186013057 0.1147669335 0.2556200560 0.3240396577 0.1154071160 0.2607360855 0.3190398382 0.1151264922 0.2621687160 0.3245780230 0.1156877449 0.2673282721 0.3190372348 0.1154436774 0.2631776859 0.3301141902 0.1161665395 0.2685362257 0.3247198250 0.1158622457 0.3468116372 0.2670684792 0.0577854867 0.2798042590 0.4118690080 0.0597691112 0.1971447427 0.4195476201
[...]
      <PointData Scalars="overlap">
        <DataArray type="Float32" Name="overlap" format="ascii">
 0.0002252099 0.0000175314 0.0002056644 0.0000271090 0.0000864762 0.0000330118 0.0000067271 0.0000516131 0.0002477986 0.0002506393 0.0001090724 0.0000483830 0.0000726791 0.0004920747 0.0000267085 0.0002309486 0.0000930443 0.0000060977 0.0000060303 0.0001283327 0.0000223874 0.0000487584 0.0000316368 0.0000308039 0.0000235492 0.0000097835 0.0001204834 0.0000833045 0.0001926196 0.0001202701 0.0000298818 0.0000287862 0.0000077627 0.0000869490 0.0002829073 0.0000290192 0.0001985952 0.0000834297 0.0000474368 0.0000985573 0.0001044842 0.0001689520 0.0000244337 0.0000128981 0.0001825371 0.0000521963 0.0000013607 0.0000530599 0.0001661471 0.0000599930 0.0000788498 0.0002212966 0.0000634961 0.0000339384 0.0000157481 0.0000085644 0.0000548787 0.0002887714 0.0001530286 0.0000507188 0.0001167704 0.0000162730 0.0000951053 0.0000948188 0.0000266726 0.0003200021 0.0000190428 0.0000904720 0.0000912549 0.0000192879 0.0000291434 0.0000604995 0.0000070944 0.0000864461 0.0000180564 0.0000016377 0.0000080361 0.0000089373 0.0000386275 0.0001853610 0.0000087312 0.0000307617 0.0002615422 0.0001143254 0.0000378282 0.0001249397 0.0000100411 0.0000136324 0.0000040202 0.0000156008 0.0000166580 0.0000397136 0.0000069844 0.0000393155 0.0000274070 0.0001009577 0.0001226994 0.0000460198 0.0000055758 0.0000080613 0.0000274864 0.0000243911 0.0000817394 0.0000440127 0.0000531300 0.0000486918 0.0000603184 0.0000761986 0.0000622041 0.0000973656 0.0000385524 0.0000568859 0.0000139172 0.0001102513 0.0000158146 0.0000253595 0.0001249537 0.0001381755 0.0001231277 0.0000799304 0.0001379779 0.0000155114 0.0000300830 0.0000371896 0.0000322521 0.0000592311 0.0000282872 0.0000085497 0.0000406053 0.0001086573 0.0000464344 0.0000187251 0.0000024226 0.0000394406 0.0000015711 0.0000123777 0.0000048879 0.0000333608 0.0000391260 0.0000602855 0.0000184835 0.0000167147 0.0000083679 0.0000068479 0.0000119966 0.0000224035 0.0000202614 0.0000126395 0.0000103939 0.0000260442 0.0000088101 0.0001698290 0.0000139050 0.0000453621 0.0000111417 0.0000460257 0.0001709220 0.0000241215 0.0001046097 0.0002025580 0.0000361874 0.0000388872 0.0001536789 0.0000026499 0.0000401090 0.0002874307 0.0000075723 0.0000179216 0.0000144482 0.0000429230 0.0000045567 0.0000128539 0.0000078555 0.0000746739 0.0000376838 0.0000590573 0.0000611000 0.0000359783 0.0000598641 0.0000173435 0.0000351383 0.0000002005 0.0000570716 0.0000124993 0.0000176643 0.0000518992 0.0000191907 0.0000531666 0.0000302835 0.0000300365 0.0000205202 0.0000077289 0.0000283457 0.0000114258 0.0000228276 0.0000144582 0.0000044016 0.0000258987 0.0000157006 0.0000056883 0.0000674816 0.0000369747 0.0000019948 0.0000129422 0.0000075989 0.0000005157 0.0000399787 0.0000107286 0.0000494416 0.0000638662 0.0000373220 0.0002481082 0.0000715434 0.0000077080 0.0000103188 0.0000074293 0.0000071252 0.0000117845 0.0000364169 0.0000336593 0.0000538151 0.0000647878 0.0000026791 0.0000081602 0.0000881306 0.0000310270 0.0000607722 0.0000854172 0.0000027148 0.0000074748 0.0000564007 0.0000903338 0.0000005253 0.0000288801 0.0000795558 0.0001168056 0.0003505665 0.0003212270 0.0000394825 0.0000251772 0.0001373681 0.0001621686 0.0000228285 0.0000386759 0.0000069078 0.0000151975 0.0000603015 0.0000174169 0.0000222184 0.0000123057 0.0000312950 0.0000744815 0.0000535274 0.0000057907 0.0000333283 0.0000231357 0.0000207745 0.0000334064 0.0000189351 0.0000230004 0.0000277231 0.0000618910 0.0000030315 0.0000056426 0.0000216519 0.0000017466 0.0000079429 0.0000689926 0.0002009604 0.0001002403 0.0000704571 0.0000618165 0.0000253372 0.0000529515 0.0000843730 0.0000198093 0.0000510875 0.0000226824 0.0001328250 0.0000052211 0.0000218380 0.0000398946 0.0000060335 0.0000130741 0.0000071352 0.0000120647 0.0000693420 0.0000463341 0.0000084256 0.0000061304 0.0000199424 0.0000510148 0.0000428877 0.0000048385 0.0000222937 0.0000263935 0.0000095823 0.0000018191 0.0000133604 0.0000581846 0.0001162221 0.0000070523 0.0000208468 0.0000300576 0.0000082315 0.0000234242 0.0000218207 0.0000726836 0.0000746630 0.0000793654 0.0000092603 0.0000793446 0.0000033197 0.0000341077 0.0000165445 0.0000030923 0.0000093713 0.0000222958 0.0000324155 0.0000314883 0.0000290229 0.0000209643 0.0000060637 0.0000220575 0.0000136439 0.0000218773 0.0000040216 0.0000588375 0.0000080831 0.0000053560 0.0000114588 0.0000608497 0.0000873949 0.0000142511 0.0000077000 0.0000050887 0.0000505010 0.0000601790 0.0000345033 0.0000375046 0.0000593699 0.0000511382 0.0000145118 0.0000060092 0.0000102718 0.0000046132 0.0000061491 0.0000087037 0.0000097901 0.0000055275 0.0000459218 0.0000166733 0.0000076664 0.0000325891 0.0000233695 0.0000007114 0.0000053654 0.0000594604 0.0000460777 0.0000198559 0.0000226223 0.0000418848 0.0000146338 0.0000078759 0.0000069437 0.0000334561 0.0000269802 0.0000106189 0.0000221720 0.0000403264 0.0000195184 0.0000137142 0.0000140806 0.0000065971 0.0000152076 0.0000080154 0.0000100563 0.0000155757 0.0000151648 0.0000045710 0.0000049239 0.0000517434 0.0000115517 0.0000604429 0.0000295493 0.0000313729 0.0000095416 0.0000184040 0.0000045261 0.0000029673 0.0000040720 0.0000649490 0.0000059373 0.0000313068 0.0000111546 0.0000235866 0.0000132765 0.0000245191 0.0001355789
        </DataArray>
        <DataArray type="Float32" Name="contact normal" NumberOfComponents="3" format="ascii">
 0.9747559122 -0.1893112226 -0.1183730233 0.1555716139 0.9312595915 0.3294738931 -0.0006373569 0.6164433372 -0.7873990131 -0.2103069593 0.7157953284 -0.6658889026 0.1103658557 -0.0480323212 -0.9927297084 0.2338441153 -0.1107129270 -0.9659500906 0.5992035037 -0.7720085871 -0.2120327867 -0.3785336685 0.6351395053 -0.6732830539 -0.3288763905 0.6782703759 -0.6571070057 -0.1641727053 -0.9501205746 -0.2651758219 -0.8558112177 0.4668480885 0.2228004085 -0.1400038078 -0.4491067575 0.8824409635 -0.1479999408 -0.4748825078 0.8675151995 -0.1169581069 -0.3830534319 0.9162919128 -0.0083263651 0.0626795645 -0.9979989699 0.0267966454 -0.0943972866 -0.9951739004 -0.8319735513 -0.0603934142 0.5515184906 -0.4684043032 0.3948195863 -0.7903890833 -0.3784752913 -0.4904657129 -0.7849839733 0.4266448159 -0.1496984179 0.8919442722 0.4063562488 -0.1798485646 0.8958398813 -0.6620798684 -0.1481350712 -0.7346470231 0.5876658231 -0.7239345662 0.3613414233 -0.6340945116 -0.2069780233 -0.7450397629 -0.0676079000 -0.3232812252 -0.9438847500 -0.7624916166 0.1937154404 -0.6173174733 0.3124755739 -0.0294302748 0.9494697861 -0.7342385551 -0.5295569924 0.4248095290 -0.7988565123 -0.6010899904 0.0227836843 -0.0013695352 -0.9554469069 0.2951598421 0.3770221796 0.7929135101 0.4786882509 0.3335673788 -0.6196523452 -0.7104672933 0.7209806078 0.5217085546 -0.4560780056 0.7537180062 0.4852867430 -0.4431771025 0.2852027484 0.6836230765 -0.6718027103 -0.4732837337 -0.4351856922 -0.7659085590 0.2186661129 -0.1884392189 -0.9574318732 -0.6235802150 0.7261396106 -0.2896014179 -0.5201689458 0.6631045925 0.5382532557 -0.1223157694 -0.0632319063 -0.9904749258 -0.3277449088 0.7301528795 0.5995498706 -0.7229386726 0.6861783508 0.0807399942 0.4062277931 -0.7683020658 -0.4946624261 0.4403020869 -0.7260583614 -0.5281792575 0.1714148439 0.2531715683 0.9521140206 -0.4363228097 -0.6609510995 0.6105456984 -0.9456346655 -0.3248604199 -0.0155173119 0.6139407563 -0.7892915883 0.0097742742 0.5989317033 -0.8007999455 0.0005118969 0.5472193523 0.8316358228 0.0945136961 0.4998105027 0.7782007071 -0.3802540216 0.0644270918 -0.3623482030 0.9298133843 0.7572577634 -0.0105288018 0.6530312581 0.1054425979 0.2945921842 0.9497880309 -0.1809034313 0.8143292189 -0.5514905909 -0.1033733663 0.6607662169 -0.7434392737 -0.0957160623 0.2005488667 -0.9749967115 -0.2508227470 0.5934654661 0.7647788505 0.4792872223 -0.4879576356 -0.7295074396 0.2611654441 -0.8734877779 0.4108670255 -0.4050280160 0.2950868047 -0.8653762673 -0.5610678882 0.6174400076 -0.5513353442 0.6796798286 -0.6364895224 -0.3645770406 0.1152706717 -0.2602833776 -0.9586267447 0.2785774153 -0.2555899602 -0.9257798853 -0.1151304949 -0.6947381683 0.7099886244 -0.1319851260 -0.1364296829 -0.9818181441 0.1889917591 -0.3259891695 0.9262900066 0.1771372999 -0.3355338066 0.9252239954 -0.3538986777 0.6917216521 -0.6295052676 -0.5815558087 -0.3308929308 0.7431707137 -0.6850123661 -0.6446808242 0.3393297706 -0.3519597319 0.0409977217 -0.9351168558 0.2481202392 0.1400650905 -0.9585500077 0.6234839008 0.3239624363 -0.7115589683 0.9444720815 -0.0566728846 0.3236675323 0.9482909036 0.0855583221 0.3056536204 -0.4734710168 0.6020968187 -0.6428877174 -0.5584094095 0.4656546011 0.6865455002 -0.4312451922 0.6832493992 0.5892349639 0.1343165060 0.8425420453 -0.5216147794 -0.6365651331 -0.7534982620 0.1643934319 0.0926934908 -0.3335343789 0.9381698859 0.0489975495 -0.2190345272 0.9744860779 0.3163058548 0.5396136981 -0.7802356458 0.7737779017 0.4542859756 0.4414657532 0.3336510450 0.5760572331 -0.7462138060 0.2731737151 0.6214758014 -0.7342642234 0.8864798551 0.4479935650 -0.1159966902 -0.3029188109 -0.8435902361 -0.4433911452 -0.2974525986 0.9482577089 0.1110372417 -0.3437130907 0.8246690738 0.4492017699 -0.8803520148 -0.1147581628 -0.4602291757 -0.2751923980 -0.8528871397 -0.4436808210 -0.0722249902 -0.8079355647 -0.5848279013 -0.2014298078 0.9574087710 0.2068682620 -0.5934935354 0.7299776172 0.3389662252 -0.3922034625 -0.5327733301 0.7498860065 0.3396604473 0.5385659395 -0.7710885224 0.3862873057 0.5406391037 -0.7473228733 0.3396456759 0.5385650577 -0.7710956448 0.3396416993 0.5385648202 -0.7710975623 0.1126235439 -0.4601019672 0.8806941110 0.1108306090 -0.4528054934 0.8846941626 -0.0838070345 -0.9413545190 -0.3268456065 0.7066995994 -0.6148240471 -0.3500957974 0.4599580863 -0.3548453987 -0.8139553439 -0.2235061893 0.1352024298 0.9652799005 -0.2231791891 0.1347968774 0.9654122702 -0.2230396450 0.1346242093 0.9654686111 -0.2232261963 0.1348551691 0.9653932611 -0.2225748796 0.1340475084 0.9656560922 -0.2236668809 0.1354017315 0.9652147416 -0.2227678877 0.1342871501 0.9655782876 -0.2224649080 0.1339111512 0.9657003512 -0.1802071928 0.0818506014 0.9802172447 -0.2226734348 0.1341810476 0.9656148238 -0.2226581919 0.1344141982 0.9655859117 -0.2230714953 0.1349935715 0.9654096766 0.1669229765 -0.3145203855 -0.9344590130 -0.2215173842 0.1354733803 0.9657002701 0.2534592093 -0.2169795482 -0.9426973559 0.2505243295 -0.2101582268 -0.9450243807 0.4823455822 -0.3851674614 -0.7867583911 0.7374707711 0.4353331530 0.5163544399 0.4636767148 0.3371314394 -0.8193572461 0.8230561508 -0.5670200601 -0.0326622729 0.2197733234 -0.1326029382 -0.9664968428 0.2253282811 -0.1300536035 -0.9655636830 0.2248749944 -0.1264203045 -0.9661517187 0.2037529159 -0.0979193877 -0.9741132084 0.2245797974 -0.1254476598 -0.9663471422 0.1756556383 -0.7374297538 0.6521828386 0.1958812842 0.1959953713 0.9608414734 -0.0155787226 0.4234321370 -0.9057938666 -0.0707339023 0.3607700989 -0.9299686289 -0.1004548076 0.3256070558 -0.9401536453 -0.0743062609 0.1549398805 -0.9851254809 -0.3376756309 0.8585540505 0.3858239373 0.1560715461 -0.5231908163 0.8378025079 -0.3066320914 -0.9367102711 -0.1689693122 0.9258900222 0.1042670751 -0.3631198753 0.5340552762 0.5979768917 0.5976693057 -0.6750388512 -0.6277291913 -0.3876578540 -0.9195432415 0.3290288947 -0.2148958201 0.0689899660 -0.6885786077 0.7218724857 0.0714552533 -0.6715882722 0.7374709075 0.0633661368 -0.3692008526 0.9271868545 0.4348805162 0.8794769751 -0.1933886937 -0.3197009548 -0.5167987532 -0.7941727446 0.2726855531 0.5234828114 -0.8072226058 -0.0187492598 0.0079273766 0.9997927895 -0.0187591630 0.0079576430 0.9997923633 0.0753909391 -0.0381785672 0.9964229038 0.2195191490 -0.5921838168 -0.7753255254 -0.1204673243 0.3287106526 -0.9367160352 -0.1204805091 0.3287215194 -0.9367105261 0.2194905995 -0.5919958610 -0.7754771288 -0.1204921785 0.3287311369 -0.9367056499 0.1357907661 -0.0261344307 0.9903927804 0.2192802358 -0.5917297725 -0.7757396822 0.2181299100 -0.5917908107 -0.7760173830 -0.3180741031 -0.8153306315 0.4838024662 -0.2059584096 0.1752067993 0.9627479997 -0.8647629987 0.4792096509 -0.1501434867 -0.0545661717 0.3320564187 0.9416799179 -0.6879672927 0.4288356899 -0.5854920624 -0.0387193909 -0.7615590487 -0.6469378827 0.1347023991 -0.2781041883 -0.9510590540 0.6640551985 0.3246311066 -0.6735319874 -0.2386444376 -0.2963094948 0.9247970132 -0.1923034163 -0.3520422250 -0.9160161941 -0.1771645577 -0.3510681874 -0.9194367011 -0.1801681695 -0.3565761466 -0.9167294488 -0.8774164972 0.4309647398 0.2107360516 -0.5001449140 0.4190860024 -0.7577743645 0.5889340617 -0.5446832915 -0.5970567669 0.2175217499 -0.1596583422 -0.9629088753 0.9732606092 0.2296997435 0.0013469801 -0.6193158128 0.5275448639 -0.5815017976 0.9097935418 -0.4077801181 0.0774021094 0.6530870450 0.0527846728 -0.7554409904 0.1090845715 0.9771225879 0.1825705467 -0.6847300669 -0.2364568084 0.6893713899 -0.6894295758 -0.2314266593 0.6863880545 -0.6822139257 -0.2397821081 0.6907160779 -0.6643650989 -0.2351700752 0.7094462990 0.4877479778 -0.4803061179 -0.7289773270 0.7528400220 -0.6492568419 -0.1081547710 0.0332294959 0.4261966695 0.9040200216 -0.6546402759 0.4064853898 0.6373505606 -0.0727203073 -0.4846309181 -0.8716906734 -0.5033513955 -0.6987138218 0.5083663718 0.3390148153 0.2884267195 -0.8954769581 -0.2373867330 0.0128334776 -0.9713304489 -0.2615758162 -0.0587915076 -0.9633907053 0.7522843610 0.2694534017 0.6012180174 0.1439987846 -0.6094710441 0.7796213160 -0.4401292438 0.8365768600 0.3262290700 0.2696945424 0.7976523540 0.5394585952 0.2716268483 0.8386182451 0.4721634190 0.2090919606 0.6355628016 -0.7431961230 -0.3845829465 0.7536676185 -0.5329925684 -0.2919742974 0.6684401217 0.6840605335 -0.2518870070 0.6666794244 0.7014923242 -0.8247797307 0.4462206094 0.3473119110 -0.1772991586 0.9573737649 0.2280361432 0.3002255300 0.5922455520 -0.7477364758 0.2806543417 0.5827378930 -0.7626596151 -0.2984390100 0.4463300537 -0.8436371498 -0.3000410456 0.4872088788 -0.8201236976 -0.1923662407 -0.5414371121 0.8184381975 -0.1957699861 -0.5312648429 0.8242765187 -0.4403338077 0.6284754070 -0.6411901438 0.0843785173 0.9896445277 0.1161205180 -0.6559040024 -0.6631177702 0.3606449259 -0.6477051611 -0.7391611178 -0.1847129293 0.6216545410 -0.6939957252 -0.3632018241 -0.4376985406 0.6554034320 -0.6155211847 -0.1216549020 0.3523890841 -0.9279127212 -0.2329527526 0.2568621420 -0.9379524802 -0.4786201202 0.7628190344 -0.4347756907 -0.1737045962 0.6567057397 0.7338693922 -0.7734227194 -0.6004257088 -0.2032394284 -0.7640758483 -0.6230911416 -0.1671691579 0.2986760277 0.2188551413 -0.9289214486 0.2974133137 0.2166322772 -0.9298471795 -0.2439374049 0.3579368500 -0.9013188969 0.3978114393 0.4542188742 -0.7971394314 0.3423452071 0.4963760691 -0.7977534439 -0.3679626045 0.7958018038 0.4809397163 -0.3649440577 0.8040812631 0.4693284108 -0.8854929291 0.3731738711 0.2768456871 -0.8869885682 0.3678066712 0.2792302499 0.0322021378 0.0956253497 -0.9948963840 0.0299022004 0.0983269526 -0.9947048149 0.0681920181 0.0531659595 -0.9962546007 0.0336687885 0.0939408394 -0.9950083072 0.0706225974 0.0502748591 -0.9962353574 0.0314984049 0.0964981378 -0.9948346395 0.0697310374 0.0513381476 -0.9962439345 -0.9735284398 0.2172809392 0.0709321538 -0.4238755708 -0.7489772366 -0.5092765453 0.4890281194 -0.6031939744 0.6300861272 0.0011445282 0.0684544793 -0.9976535843 0.1759359692 -0.2961187537 -0.9388078709 0.5084291929 -0.3526618849 -0.7855758084 0.1803343447 -0.9835925323 -0.0050253875 0.9711381874 -0.0971650925 -0.2178292126 -0.2651210579 -0.9614119737 0.0734700036 -0.2908612494 -0.5680927590 0.7698508627 0.6003697562 -0.1235694286 -0.7901181887 0.4877572071 0.4212440960 0.7646216832 -0.0680082582 -0.9155790771 -0.3963455947 -0.1219520757 0.3803779072 -0.9167553321 0.3198535544 -0.2090735248 0.9241114462 -0.6040754068 -0.0347637156 -0.7961685670 -0.2391609953 -0.6359411688 0.7337444025 -0.2315502729 -0.6370171484 0.7352507217 0.8045638234 -0.5925174292 0.0400018772 0.5654661180 -0.0073248495 0.8247389987 0.0996618768 0.7560925034 0.6468320003 -0.1534735009 0.6421885157 -0.7510258283 0.7465928138 0.1815144974 -0.6400403562 0.1414889589 -0.5278150429 -0.8374915850 -0.6001564281 -0.5560281643 -0.5750173409 -0.2655264795 0.5367719377 -0.8008567759 -0.8479721203 -0.3158349781 -0.4256660073 -0.7710807862 -0.1248551923 -0.6243761704 0.3590315616 0.2544339877 -0.8979753246 0.3518003666 0.2536805510 -0.9010453263 0.3589464539 0.2544591018 -0.8980022321 0.4646790972 -0.0593371881 0.8834887859 -0.0937026669 -0.1858342100 -0.9781029888 -0.0848828242 -0.1981145167 -0.9764965665 -0.1139210925 -0.6161854076 -0.7793186307 0.0885972513 0.1653890036 0.9822408078 0.7157452478 -0.2994738308 -0.6308915635 0.8781457916 0.0218802869 0.4778924792 0.4081448665 0.9091568655 -0.0827741616 0.9198155882 -0.1472118176 -0.3636866296 0.4277951699 0.5480238564 -0.7187914478 0.4394602533 0.5374386264 -0.7197460723 -0.0485473316 -0.6506535298 0.7578213119 -0.0481456037 -0.6506582721 0.7578428688 -0.0497881248 -0.6508237282 0.7575946260 -0.0495902206 -0.6508272492 0.7576045814 -0.0496824410 -0.6508521370 0.7575771583 0.3639488941 -0.0156227145 -0.9312878896 0.9432776393 0.2503009085 -0.2181209537 -0.4285691857 0.5269184788 0.7339518852 -0.4289602109 0.5264928504 0.7340288931 -0.4345236141 0.5250893404 0.7317584393 -0.7262215123 0.3025953068 0.6172830755 -0.0362773405 0.2405705277 -0.9699534915 0.0041141870 0.2892700911 -0.9572386786 0.0163375847 0.3096395019 -0.9507136594 0.2013717384 0.3973487109 -0.8953007455 0.1078220253 0.8494453634 -0.5165433045 -0.3692986690 -0.1432371985 -0.9182056404 -0.2699967537 0.0784219823 -0.9596623082 -0.3530758248 -0.2886998636 0.8899381162 -0.3215940745 -0.9253113219 -0.2009383210 0.2932614820 -0.5837302454 -0.7571371763 -0.0298859073 -0.6451725996 -0.7634521264 0.2668482698 0.3719997138 -0.8890490503 0.3191514188 0.1144573542 -0.9407666480 -0.3964125298 0.0135421790 -0.9179726116 -0.3971618882 0.0123345211 -0.9176656767 -0.3732048608 0.0502630122 -0.9263863997 -0.3734223748 0.0499716817 -0.9263145044 0.1842377804 -0.3894886260 0.9024162290 -0.2693510094 0.0358337524 -0.9623751742 -0.2119692765 0.0192436557 -0.9770868475 -0.0860991040 -0.1622348753 0.9829887026 0.6305995993 -0.6960958988 -0.3432122449 0.6343299270 -0.6934394926 -0.3417121797 -0.2452338727 0.8945664783 -0.3736457729 -0.4035225179 0.9128094530 0.0628369321 -0.5503010839 -0.7400323504 0.3866792436 0.1735312107 0.3615625552 -0.9160564598 0.1744387919 0.3463887131 -0.9217298776 0.3688393700 -0.7351877803 -0.5687323156 -0.4895650230 -0.5444989810 -0.6810631013 0.0874874025 0.4826738012 0.8714195063 0.0729863067 0.4577580645 0.8860759298 0.2545764066 0.7718858588 -0.5825659398 0.2177943458 0.8018493989 -0.5564199533 -0.1614241759 -0.9838729874 0.0770466096 -0.0928355181 0.9011147057 0.4235255054 -0.4452325821 -0.8639920566 -0.2351290583 0.7007689893 -0.1018079226 0.7060863762 0.7781027073 -0.0149214286 0.6279598139 -0.1273889913 -0.6337177223 0.7630032066 -0.1228765115 -0.6298744500 0.7669156018 -0.1273578126 -0.6337428271 0.7629875599 -0.1228463753 -0.6299738848 0.7668387526 -0.1229034693 -0.6300218479 0.7667901984 -0.0930022866 -0.6040542454 0.7914979743 -0.1220014711 -0.6310546222 0.7660846591 -0.0935444907 -0.6037207032 0.7916885377 -0.0934231232 -0.6036252843 0.7917756224 -0.0310404543 0.6016997098 0.7981190071 0.5127631967 0.8091979578 -0.2868319528 0.9208301138 0.2509974175 0.2984496572 -0.0789503835 0.2649955991 -0.9610120548 -0.0745167266 0.2682594683 -0.9604603662 -0.0701932787 0.2713689130 -0.9599124005 0.3275278362 0.4936603232 -0.8056208797 0.6858923098 0.7189478039 0.1125424129 -0.1523939801 -0.6449719143 0.7488573326 -0.1524421164 -0.6449498916 0.7488665024 -0.1524555791 -0.6449475483 0.7488657800 -0.1524074765 -0.6449530662 0.7488708190 -0.1524381119 -0.6449495599 0.7488676033 -0.1524580815 -0.6449472384 0.7488655373 -0.1524548306 -0.6449476129 0.7488658767 -0.1523883199 -0.6449552721 0.7488728176 -0.1524033518 -0.6449535411 0.7488712494 0.0626330082 0.755248652