<?xml version="1.0"?>
<VTKFile type="UnstructuredGrid" version="0.1" byte_order="LittleEndian">
  <UnstructuredGrid>
    <FieldData>
      <DataArray type="Float32" Name="TIME"  NumberOfTuples="1" format="ascii"> 2.8000000000 </DataArray>
      <DataArray type="Int32"   Name="STEP"  NumberOfTuples="1" format="ascii"> 280000 </DataArray>
    </FieldData>
    <Piece NumberOfPoints="399" NumberOfCells="399">
      <Points>
        <DataArray type="Float32" NumberOfComponents="3" format="ascii">
 0.4248655255 0.2068246754 0.0759425234 0.5299834061 0.1286320968 0.0400905065 0.5050734761 0.1472901848 0.1825913138 0.6403308441 0.1082656845 0.1124593809 0.5396126143 0.3646961262 0.2039998995 0.5528627652 0.3591018965 0.2072257617 0.5678910070 0.4472838519 0.1939262306 0.7522015907 0.1787385173 0.1457373266 0.7585133734 0.1855910493 0.1501543673 0.6781372513 0.4551482701 0.1694652270 0.8496088671 0.2321586082 0.1150668053 0.7816292462 0.3733968645 0.0369722273 0.7953318784 0.3703138745 0.0373487795 0.8168261059 0.3857426396 0.0431746579 0.8042877358 0.3963501227 0.2240346334 0.8177015642 0.3880437844 0.2261931778 0.8970057774 0.3686623436 0.1723153274 0.7489574002 0.3245509092 0.6726862132 0.7715933845 0.2992913683 0.6582602972 0.7860261452 0.3639003688 0.5621492195 0.8677400708 0.6052390322 0.5111381878 0.9118153451 0.5556485168 0.5587190670 0.8933347644 0.6065785124 0.4947005822 0.9262236264 0.5446461121 0.5458333605 0.9417325865 0.3093621060 0.5254639691 0.9349239900 0.3343203828 0.5344010634 0.9466583537 0.4740626578 0.4508181617 0.2426831165 0.7997973674 0.0414072970 0.2550041517 0.8173384512 0.0914576994 0.0745408921 0.9091232667 0.1097898295 0.1543235335 0.7223189477 0.0815088759 0.0388480961 0.8885763788 0.1662299456 0.0554830538 0.8047835060 0.1553459795 0.0622452146 0.7985054366 0.1588802755 0.1716655266 0.7198406912 0.1453824659 0.1846701098 0.8263773559 0.1958310478 0.5696624345 0.7614149194 0.2455264120 0.6836954032 0.7584625172 0.2617669320 0.6518268353 0.7389198072 0.1620803930 0.7064493469 0.8129138245 0.2796421296 0.6573950346 0.7424563004 0.1621256572 0.6559148032 0.7439887576 0.1560625128 0.6050536433 0.8504641576 0.2446695257 0.6094905411 0.8548452610 0.2417830089 0.5207957924 0.7623147940 0.0984629838 0.7326498791 0.8581091943 0.2193678432 0.7273888536 0.8568454562 0.2066730780 0.5647755645 0.8549307427 0.1613306627 0.5655432892 0.8555394547 0.1539499956 0.1730884420 0.4807041276 0.3236687464 0.1676988552 0.4846853363 0.4415909364 0.1372093619 0.6603894221 0.2434464082 0.0843621778 0.6890419959 0.2636707096 0.1610017583 0.6613733467 0.2414220228 0.2576853360 0.4522143113 0.3447841244 0.2908217487 0.4616804089 0.4187193900 0.2909896791 0.5655086284 0.4523269827 0.3086337210 0.4589968047 0.2813296257 0.1182094192 0.7733035853 0.4080898607 0.2713212323 0.7854264952 0.2555501231 0.4240766667 0.5343439892 0.4164786264 0.4308573267 0.5455601530 0.4205634228 0.2460013535 0.8876085546 0.3715550562 0.3711244867 0.8402712593 0.4486924358 0.3884552088 0.8571705206 0.4473805928 0.4440477481 0.9114115618 0.2749301976 0.5616941121 0.7792369287 0.4616544189 0.7554626702 0.3393614272 0.5253664421 0.7491419593 0.3251155228 0.5221856391 0.7310410504 0.1923218988 0.5211149826 0.6605276854 0.0750026211 0.2089068819 0.6490925361 0.1078242105 0.2421733446 0.6082326432 0.1071842302 0.3161804072 0.5368084196 0.0942184198 0.3297710736 0.6497656859 0.8867031566 0.4452711241 0.6558266582 0.9007457463 0.3525093276 0.6572061288 0.9097063527 0.3464142042 0.7437349524 0.9446356985 0.5283420794 0.6975275500 0.9102992619 0.3310051521 0.7118964432 0.2412314219 0.2823327788 0.6923335650 0.1618247478 0.4376708033 0.7639622067 0.3793122161 0.3440278809 0.7707356774 0.3872244504 0.3523719531 0.5690852303 0.3189422755 0.3113873582 0.5335508804 0.2357767273 0.4478702986 0.4819226893 0.2672504991 0.3471223614 0.4709343356 0.3273642974 0.5039566842 0.4582433046 0.3355683061 0.5055482338 0.3861275044 0.4139787800 0.4441301899 0.5795570177 0.5972595970 0.5628762494 0.1272843017 0.2954913445 0.0794068532 0.1210214344 0.2920247792 0.0845404167 0.1781409824 0.3772351620 0.0528337657 0.1491846668 0.4388034833 0.0568119888 0.0950513526 0.4146545151 0.1045537888 0.2077576800 0.4386267021 0.0527650613 0.1964215785 0.4344278178 0.0567124586 0.2718649209 0.5419330710 0.0599520322 0.1116356025 0.4730189115 0.1348025210 0.1123443821 0.4827917547 0.1420328559 0.1047367610 0.4920105509 0.1450378914 0.0995446048 0.5073275448 0.1534448179 0.1196640092 0.6091634859 0.0768625477 0.1243079565 0.6141205756 0.0785433008 0.0731068652 0.6660879601 0.2039447736 0.0764850478 0.6738810877 0.1942212295 0.1368991203 0.3952862517 0.2410297191 0.2422127290 0.3041291459 0.2229839892 0.2365960569 0.2958152135 0.2228482262 0.2487063577 0.3044899702 0.2244115580 0.2293349719 0.2902094097 0.2219678660 0.2433826415 0.2948294669 0.2245370751 0.2197439138 0.2869284987 0.2202318293 0.2548627440 0.3066655775 0.2255143068 0.2368428369 0.2880813613 0.2239867844 0.2496207864 0.2953275215 0.2258873547 0.2609595002 0.3107896395 0.2263356069 0.2673062085 0.3172670990 0.2268941850 0.2743121742 0.3269065695 0.2271850463 0.0603276824 0.3238601346 0.2405522892 0.2818528102 0.3248940448 0.2291689925 0.2734193549 0.3270490988 0.3139737237 0.2819437757 0.3344279759 0.3145347295 0.0744054192 0.2508636490 0.2704876631 0.0724354486 0.1488450436 0.2300779157 0.1130151008 0.0685992855 0.2994138608 0.1289093601 0.0610868917 0.3107443981 0.2422523543 0.1318707438 0.3407277509 0.2508569108 0.1370580768 0.3419976478 0.2667428613 0.1556167818 0.3433604978 0.2741720369 0.1652461705 0.3438923507 0.2824431896 0.1696906359 0.3451599905 0.8679190083 0.1866462983 0.4388058364 0.8336817075 0.1057840614 0.4125780145 0.7587865635 0.1533892848 0.5977302621 0.7548319930 0.1422525006 0.5935171836 0.7470173393 0.1331131364 0.5912840294 0.2973152866 0.2801246953 0.5031616910 0.2898192262 0.2700264201 0.4140876623 0.2534997153 0.3450415915 0.3698617101 0.3102800612 0.3803416650 0.4286192846 0.6312909130 0.7388017336 0.5144410603 0.6934316670 0.6467628474 0.3835488076 0.7179986249 0.8411220836 0.5228734242 0.7601121630 0.7119190442 0.4431566889 0.7150660731 0.7763954194 0.3773386491 0.7224899564 0.7765642162 0.3764750613 0.7217470549 0.7830361482 0.3798933554 0.5481875281 0.5178807939 0.2034163251 0.6016765681 0.5231813315 0.2544417440 0.6024644702 0.5427583877 0.2596852851 0.6200427063 0.5473501636 0.0836202252 0.6262669511 0.5623852155 0.0836985802 0.6399059088 0.5592323076 0.0832585525 0.7413562319 0.6640243280 0.2510465552 0.8187170583 0.4748233068 0.2427176850 0.8265612914 0.4850377457 0.2453601867 0.7524089388 0.6663454396 0.2524254188 0.8342689632 0.4949636291 0.2478041165 0.7588447401 0.7526336425 0.1137492273 0.7644302103 0.6690099500 0.2538315389 0.7782254815 0.6723027533 0.2552949513 0.8026210269 0.7665638288 0.1615331517 0.8794301352 0.6238427117 0.0942653940 0.9217425560 0.5592529895 0.1912930794 0.8981094887 0.6354669964 0.0942519752 0.9265937460 0.6781189932 0.2684877321 0.9125146469 0.7262484805 0.2334555689 0.9396902486 0.6711479444 0.2630026639 0.3658527813 0.5765591220 0.0833479176 0.4803343571 0.7324428451 0.0279593308 0.4430327304 0.6659644362 0.0961066976 0.4495915099 0.6639645777 0.0952663179 0.4523355515 0.6598798441 0.0965928607 0.3894140388 0.1711512463 0.4216738754 0.3343282855 0.0835962967 0.4717567206 0.1711619385 0.1840715802 0.3885519255 0.2163969591 0.1306980162 0.4587598811 0.1403152122 0.0872444876 0.4244191687 0.9285707799 0.4500576923 0.5810533363 0.2542667976 0.1549618724 0.0768238799 0.2905359109 0.1241706010 0.1289597626 0.3212528363 0.0796902975 0.1134309364 0.3626136363 0.1664951983 0.0989912086 0.3618116495 0.1720331446 0.1001076552 0.3650573393 0.1699178225 0.1024754046 0.3680819472 0.1736264764 0.1065977877 0.3291193211 0.2036804094 0.1572367432 0.3370092356 0.2091277396 0.1616371940 0.0617457666 0.1503443181 0.5058007571 0.1851537619 0.1663349714 0.5386196246 0.1499010584 0.2658921134 0.5712995462 0.1483445881 0.2522254097 0.4787912462 0.0408593554 0.9382740542 0.1632790248 0.1579120060 0.9508843745 0.1726206726 0.1685811099 0.9468867093 0.1683306104 0.4623076423 0.4848397365 0.1661077857 0.4577481560 0.4752217278 0.1662385332 0.5258213837 0.3954495630 0.2669789133 0.8807307245 0.5610001052 0.0484146075 0.8724850031 0.5657485514 0.0455639705 0.8788723825 0.5639567271 0.0436086114 0.9528858234 0.5564839735 0.0824615389 0.0848605094 0.9509140303 0.2972594833 0.0909296984 0.9527338803 0.2984105407 0.7712012361 0.0774325041 0.2849992111 0.7320443784 0.0975392403 0.3049634181 0.7245534910 0.0995462426 0.3031238648 0.8351611858 0.1252681737 0.3223782851 0.8416793472 0.1387118991 0.3278996232 0.7707174532 0.1908851025 0.2038460313 0.7747346157 0.1947181281 0.2066765225 0.3426241059 0.1902189109 0.5344562456 0.3550194353 0.1906356449 0.5361995781 0.4139979779 0.2829448607 0.5664106607 0.9548996420 0.6061800138 0.3610196060 0.8663812727 0.6117987776 0.4001115813 0.8999163498 0.4790679211 0.3659212325 0.9022694017 0.4738063023 0.3628353127 0.8960217001 0.4718840044 0.3635559265 0.9027215361 0.3807540495 0.2926223837 0.8058070687 0.0773887797 0.5900195871 0.3432502290 0.9113996787 0.0686957375 0.3482555673 0.9041868891 0.0728547194 0.2973771071 0.8399037597 0.0897857712 0.2988435790 0.8343467896 0.0890977060 0.8006523299 0.6605799333 0.3595341199 0.6844022877 0.6155005521 0.3399598448 0.6751673742 0.6201201657 0.3384222404 0.1505745649 0.9040886296 0.4534406531 0.1568599830 0.9069175858 0.4543828821 0.1183437024 0.9135209068 0.2299884885 0.1206149210 0.9131855268 0.2376250878 0.2538582436 0.3185999576 0.1147662056 0.2556210233 0.3240383127 0.1154063961 0.2607370681 0.3190384890 0.1151258440 0.2621696815 0.3245766840 0.1156870896 0.2673292501 0.3190358962 0.1154430966 0.2631786381 0.3301128565 0.1161658843 0.2685371940 0.3247184879 0.1158616614 0.3468130187 0.2670675803 0.0577853015 0.2798053830 0.4118678724 0.0597691415 0.1971451686 0.4195474878 0.3309921960 0.3175367262 0.4047894698
[...]
      <PointData Scalars="overlap">
        <DataArray type="Float32" Name="overlap" format="ascii">
 0.0002255140 0.0000178569 0.0002059743 0.0000274536 0.0000868848 0.0000337406 0.0000067385 0.0000519634 0.0002481741 0.0002509992 0.0001094024 0.0000489675 0.0000732963 0.0004929342 0.0000276297 0.0002317144 0.0000931607 0.0000059917 0.0000061734 0.0001279345 0.0000225023 0.0000496505 0.0000312022 0.0000297302 0.0000237819 0.0000095436 0.0001204344 0.0000834986 0.0001927362 0.0001197888 0.0000303255 0.0000289798 0.0000076346 0.0000869544 0.0002833788 0.0000288225 0.0002008422 0.0000835512 0.0000471452 0.0000981051 0.0001040296 0.0001685229 0.0000239253 0.0000126411 0.0001839993 0.0000526702 0.0000015513 0.0000530688 0.0001664195 0.0000605716 0.0000792890 0.0002216295 0.0000634113 0.0000343513 0.0000157109 0.0000080822 0.0000546558 0.0002895314 0.0001522166 0.0000513693 0.0001178934 0.0000175536 0.0000945687 0.0000948826 0.0000255757 0.0003205384 0.0000197022 0.0000905395 0.0000902875 0.0000190133 0.0000295153 0.0000612559 0.0000073760 0.0000861578 0.0000186991 0.0000016532 0.0000080447 0.0000087684 0.0000385868 0.0001863693 0.0000089509 0.0000307273 0.0002621483 0.0001151645 0.0000365946 0.0001256405 0.0000100217 0.0000138991 0.0000037989 0.0000161294 0.0000166427 0.0000397385 0.0000071521 0.0000396985 0.0000270321 0.0001011892 0.0001230029 0.0000463643 0.0000056310 0.0000081209 0.0000276767 0.0000246843 0.0000825699 0.0000449061 0.0000528046 0.0000485650 0.0000603489 0.0000762504 0.0000621738 0.0000975191 0.0000384125 0.0000569629 0.0000136319 0.0001105009 0.0000157928 0.0000255382 0.0001252970 0.0001386139 0.0001236670 0.0000802384 0.0001386446 0.0000160787 0.0000306188 0.0000370211 0.0000328240 0.0000591044 0.0000284354 0.0000086047 0.0000406246 0.0001085489 0.0000462582 0.0000185202 0.0000023932 0.0000399044 0.0000016164 0.0000123375 0.0000049209 0.0000337341 0.0000387021 0.0000605992 0.0000183406 0.0000171720 0.0000080794 0.0000066153 0.0000122082 0.0000222423 0.0000205016 0.0000127978 0.0000107466 0.0000259199 0.0000088558 0.0001703272 0.0000143827 0.0000457706 0.0000110517 0.0000462318 0.0001711057 0.0000240702 0.0001047710 0.0002023772 0.0000361795 0.0000389313 0.0001533860 0.0000034337 0.0000395839 0.0002885447 0.0000076319 0.0000185132 0.0000144835 0.0000434317 0.0000043147 0.0000133241 0.0000081729 0.0000749105 0.0000375778 0.0000599627 0.0000613635 0.0000357474 0.0000608492 0.0000170661 0.0000350122 0.0000000947 0.0000568208 0.0000126222 0.0000173571 0.0000517485 0.0000187900 0.0000526218 0.0000299742 0.0000298572 0.0000203392 0.0000080796 0.0000289113 0.0000112465 0.0000229376 0.0000148150 0.0000044584 0.0000261158 0.0000157082 0.0000056707 0.0000675547 0.0000369493 0.0000022253 0.0000127903 0.0000078662 0.0000400860 0.0000104687 0.0000491484 0.0000640248 0.0000374204 0.0002484519 0.0000719273 0.0000079260 0.0000103576 0.0000073398 0.0000071967 0.0000115548 0.0000366545 0.0000337318 0.0000536553 0.0000649432 0.0000025366 0.0000080264 0.0000882966 0.0000310439 0.0000607368 0.0000852362 0.0000024710 0.0000074573 0.0000553923 0.0000899108 0.0000004590 0.0000286683 0.0000799157 0.0001172282 0.0003508623 0.0003216124 0.0000397309 0.0000256323 0.0001376973 0.0001622970 0.0000230782 0.0000392146 0.0000070155 0.0000152958 0.0000604723 0.0000176449 0.0000216354 0.0000119779 0.0000309691 0.0000743634 0.0000534546 0.0000057385 0.0000326212 0.0000232230 0.0000209976 0.0000334801 0.0000189343 0.0000234497 0.0000273551 0.0000620488 0.0000032349 0.0000056718 0.0000214871 0.0000013667 0.0000080044 0.0000690620 0.0002012142 0.0001006866 0.0000707045 0.0000618382 0.0000253088 0.0000537000 0.0000845695 0.0000195902 0.0000503279 0.0000230580 0.0001328889 0.0000053797 0.0000217881 0.0000399159 0.0000062051 0.0000000939 0.0000138233 0.0000075866 0.0000123755 0.0000692207 0.0000455896 0.0000089674 0.0000062055 0.0000203653 0.0000507567 0.0000419231 0.0000038760 0.0000223946 0.0000265227 0.0000097516 0.0000020143 0.0000134783 0.0000581501 0.0001164622 0.0000070241 0.0000207564 0.0000301253 0.0000081245 0.0000236350 0.0000219535 0.0000728723 0.0000742730 0.0000795281 0.0000088907 0.0000789794 0.0000033329 0.0000337306 0.0000161694 0.0000038844 0.0000087100 0.0000220117 0.0000321936 0.0000314490 0.0000289181 0.0000207864 0.0000060270 0.0000217501 0.0000137585 0.0000218405 0.0000041907 0.0000586645 0.0000079223 0.0000051431 0.0000113023 0.0000606939 0.0000876912 0.0000141284 0.0000073256 0.0000051519 0.0000503190 0.0000601854 0.0000342726 0.0000376975 0.0000593217 0.0000512718 0.0000146672 0.0000058164 0.0000107563 0.0000039132 0.0000059360 0.0000094490 0.0000097572 0.0000054568 0.0000459278 0.0000167072 0.0000077229 0.0000328006 0.0000234458 0.0000008906 0.0000055191 0.0000595547 0.0000462096 0.0000195409 0.0000226320 0.0000419146 0.0000146193 0.0000079616 0.0000069208 0.0000339400 0.0000269577 0.0000104249 0.0000221110 0.0000404304 0.0000195805 0.0000140646 0.0000139144 0.0000067243 0.0000151522 0.0000078698 0.0000101640 0.0000159173 0.0000149226 0.0000045811 0.0000051218 0.0000517092 0.0000116038 0.0000608700 0.0000298404 0.0000319978 0.0000081373 0.0000190832 0.0000047984 0.0000028175 0.0000037165 0.0000652280 0.0000062485 0.0000314263 0.0000105735 0.0000235192 0.0000129038 0.0000246515 0.0001359720
        </DataArray>
        <DataArray type="Float32" Name="contact normal" NumberOfComponents="3" format="ascii">
 0.9747514957 -0.1893339265 -0.1183730797 0.1555845157 0.9312632231 0.3294575357 -0.0006367875 0.6164527822 -0.7873916191 -0.2103090674 0.7157870885 -0.6658970942 0.1103500678 -0.0480217725 -0.9927319738 0.2338267093 -0.1107046247 -0.9659552557 0.5992145321 -0.7719996634 -0.2120341111 -0.3785334690 0.6351398422 -0.6732828482 -0.3288766657 0.6782705492 -0.6571066891 -0.1641751993 -0.9501168913 -0.2651874750 -0.8558108414 0.4668473689 0.2228033615 -0.1400044765 -0.4490999811 0.8824443062 -0.1480005784 -0.4748757935 0.8675187661 -0.1169589120 -0.3830467174 0.9162946170 -0.0083255258 0.0626890035 -0.9979983840 0.0268006559 -0.0943889324 -0.9951745848 -0.8319864264 -0.0603883315 0.5514996244 -0.4683954519 0.3948443728 -0.7903819469 -0.3784799518 -0.4904358640 -0.7850003754 0.4267013766 -0.1496466391 0.8919259042 0.4063765449 -0.1798402805 0.8958323377 -0.6620543832 -0.1481323785 -0.7346705331 0.5876487965 -0.7239460756 0.3613460553 -0.6340676042 -0.2069741806 -0.7450637300 -0.0676259077 -0.3232498718 -0.9438941980 -0.7624900898 0.1937357441 -0.6173129874 0.3125011324 -0.0294080722 0.9494620622 -0.7342285262 -0.5295660045 0.4248156285 -0.7988427162 -0.6011076739 0.0228008600 -0.0013751519 -0.9554439630 0.2951693455 0.3770182694 0.7929012425 0.4787116503 0.3335832181 -0.6196438552 -0.7104672612 0.7209764803 0.5217201178 -0.4560713030 0.7537148579 0.4852980689 -0.4431700546 0.2852254991 0.6836345188 -0.6717814074 -0.4732872323 -0.4351821119 -0.7659084314 0.2186345992 -0.1884043090 -0.9574459402 -0.6235790297 0.7261400094 -0.2896029705 -0.5201699983 0.6631003010 0.5382575254 -0.1222879609 -0.0632412036 -0.9904777659 -0.3277445701 0.7301518267 0.5995513378 -0.7229370614 0.6861793458 0.0807459641 0.4062211763 -0.7683170744 -0.4946445482 0.4402996940 -0.7260732643 -0.5281607657 0.1713975734 0.2531805808 0.9521147333 -0.4363241883 -0.6609586882 0.6105364979 -0.9456348780 -0.3248595832 -0.0155218803 0.6139344677 -0.7892961972 0.0097970663 0.5989272118 -0.8008032888 0.0005362693 0.5472308129 0.8316312913 0.0944872093 0.4998145189 0.7781870184 -0.3802767558 0.0644279034 -0.3623443683 0.9298148225 0.7572552537 -0.0105159707 0.6530343752 0.1054387471 0.2946224195 0.9497790798 -0.1808962207 0.8143194592 -0.5515073669 -0.1033724773 0.6607701924 -0.7434358640 -0.0956720153 0.2005303248 -0.9750048484 -0.2508158715 0.5934775305 0.7647717433 0.4793172235 -0.4878950975 -0.7295295560 0.2611745562 -0.8734957282 0.4108443307 -0.4050076014 0.2950854085 -0.8653862978 -0.5610513913 0.6174373073 -0.5513551558 0.6797027237 -0.6364604093 -0.3645851818 0.1152510174 -0.2602437777 -0.9586398589 0.2785577832 -0.2555558757 -0.9257952019 -0.1151241893 -0.6947458455 0.7099821344 -0.1319853980 -0.1363873151 -0.9818239939 0.1889874805 -0.3259837262 0.9262927952 0.1771333810 -0.3355280439 0.9252268355 -0.3539278828 0.6917246956 -0.6294855037 -0.5815515886 -0.3308818042 0.7431789700 -0.6850157907 -0.6446678718 0.3393474644 -0.3519548316 0.0410022592 -0.9351185012 0.2481552651 0.1400517262 -0.9585428934 0.6234500385 0.3240066983 -0.7115684851 0.9444675624 -0.0566707583 0.3236810910 0.9482871981 0.0855601543 0.3056646036 -0.4734760312 0.6020684604 -0.6429105823 -0.5584312794 0.4656560456 0.6865267318 -0.4312491999 0.6832509906 0.5892301855 0.1343172415 0.8425310216 -0.5216323957 -0.6365649338 -0.7535037454 0.1643690686 0.0926919697 -0.3335331547 0.9381704714 0.0489930055 -0.2190289785 0.9744875535 0.3163026242 0.5395899394 -0.7802533865 0.7737819610 0.4542834134 0.4414612748 0.3336802601 0.5760488480 -0.7462072157 0.2732024147 0.6214699241 -0.7342585199 0.8864817469 0.4479877809 -0.1160045713 -0.3028223718 -0.8435985161 -0.4434412642 -0.2974557209 0.9482585700 0.1110215229 -0.3437170500 0.8246742688 0.4491892029 -0.8803491990 -0.1147587069 -0.4602344262 -0.2751884899 -0.8528888922 -0.4436798763 -0.0722186003 -0.8079374985 -0.5848260188 -0.2014316183 0.9574074719 0.2068725111 -0.5934967946 0.7299748920 0.3389663875 -0.3922080917 -0.5327761650 0.7498815712 0.3396772632 0.5385610321 -0.7710845424 0.3863036651 0.5406341113 -0.7473180287 0.3396624940 0.5385601505 -0.7710916641 0.3396585191 0.5385599131 -0.7710935808 0.1126320472 -0.4601123623 0.8806875927 0.1108390873 -0.4528158811 0.8846877837 -0.0837935222 -0.9413516913 -0.3268572150 0.7067019458 -0.6148189988 -0.3500999264 0.4599454912 -0.3548502838 -0.8139603315 -0.2235171744 0.1352129257 0.9652758867 -0.2231901755 0.1348073648 0.9654082659 -0.2230506408 0.1346347039 0.9654646074 -0.2232371777 0.1348656517 0.9653892575 -0.2225858790 0.1340579927 0.9656521015 -0.2236778499 0.1354122126 0.9652107294 -0.2227788912 0.1342976456 0.9655742892 -0.2224759052 0.1339216293 0.9656963647 -0.1802189623 0.0818607290 0.9802142351 -0.2226844429 0.1341915461 0.9656108263 -0.2226691973 0.1344247001 0.9655819119 -0.2230824972 0.1350040843 0.9654056643 0.1669366687 -0.3145197997 -0.9344567642 -0.2215283274 0.1354838711 0.9656962881 0.2534588309 -0.2169918460 -0.9426946270 0.2505240522 -0.2101706756 -0.9450216857 0.4823426985 -0.3851713543 -0.7867582532 0.7374682989 0.4353398254 0.5163523454 0.4636543903 0.3371365741 -0.8193677665 0.8230727342 -0.5669960791 -0.0326606880 0.2197680736 -0.1326062356 -0.9664975841 0.2253229732 -0.1300569335 -0.9655644731 0.2248696074 -0.1264234608 -0.9661525595 0.2037479233 -0.0979220950 -0.9741139805 0.2245743166 -0.1254506660 -0.9663480257 0.1756699758 -0.7374364101 0.6521714504 0.1959016919 0.1959945934 0.9608374714 -0.0155825352 0.4234267527 -0.9057963180 -0.0707394244 0.3607659010 -0.9299698374 -0.1004612628 0.3256034921 -0.9401541898 -0.0743487822 0.1549536892 -0.9851201007 -0.3376539391 0.8585541146 0.3858427785 0.1560658343 -0.5231811463 0.8378096105 -0.3066417910 -0.9367068077 -0.1689709099 0.9259482112 0.1042933752 -0.3629639129 0.5340501974 0.5979810068 0.5976697267 -0.6750025228 -0.6277773921 -0.3876430576 -0.9195127186 0.3290702341 -0.2149631163 0.0689772007 -0.6885742559 0.7218778566 0.0714408040 -0.6715826964 0.7374773850 0.0633418219 -0.3691958579 0.9271905048 0.4348482529 0.8794944228 -0.1933818945 -0.3196960011 -0.5168106678 -0.7941669853 0.2727005920 0.5234712697 -0.8072250101 -0.0187400608 0.0079257098 0.9997929752 -0.0187499709 0.0079559802 0.9997925490 0.0753990215 -0.0381824210 0.9964221446 0.2195134195 -0.5921887951 -0.7753233452 -0.1204656623 0.3287096150 -0.9367166131 -0.1204788453 0.3287204801 -0.9367111048 0.2194848685 -0.5920008330 -0.7754749553 -0.1204905130 0.3287300959 -0.9367062295 0.1357426800 -0.0261283424 0.9903995328 0.2192744966 -0.5917347392 -0.7757375159 0.2181241271 -0.5917957743 -0.7760152233 -0.3181115303 -0.8153476411 0.4837491896 -0.2059653981 0.1751940169 0.9627488308 -0.8647704770 0.4791963680 -0.1501428084 -0.0545763020 0.3320452876 0.9416832558 -0.6879587269 0.4288636756 -0.5854816289 -0.0388115115 -0.7615414228 -0.6469531110 0.1346459195 -0.2781392545 -0.9510567972 0.6640599829 0.3246363091 -0.6735247627 -0.2386462952 -0.2963498672 0.9247835974 -0.1922852910 -0.3520506674 -0.9160167544 -0.1771465566 -0.3510766536 -0.9194369368 -0.1801500849 -0.3565845114 -0.9167297492 -0.8774186027 0.4309574780 0.2107421357 -0.5000996113 0.4190543625 -0.7578217601 0.5889325615 -0.5446863587 -0.5970554485 0.2172963233 -0.1597941969 -0.9629372371 0.9732651253 0.2296807152 0.0013285142 -0.6192962531 0.5275821544 -0.5814887972 0.9097895388 -0.4077875997 0.0774097453 0.6530745404 0.0527491256 -0.7554542835 0.1091843976 0.9771575360 0.1823236605 -0.6847310578 -0.2364310259 0.6893792486 -0.6894310393 -0.2314005001 0.6863954040 -0.6822146185 -0.2397566767 0.6907242216 -0.6643662088 -0.2351440137 0.7094538980 0.4877548969 -0.4803216120 -0.7289624885 0.7528402454 -0.6492579916 -0.1081463146 0.0332252380 0.4262023219 0.9040175133 -0.6547259989 0.4061746767 0.6374605857 -0.0724602027 -0.4846428683 -0.8717056896 -0.5033488312 -0.6987203425 0.5083599483 0.3390270371 0.2884416345 -0.8954675268 -0.2373910622 0.0128366597 -0.9713293488 -0.2615782844 -0.0587854613 -0.9633904041 0.7522993228 0.2694379541 0.6012062190 0.1439886620 -0.6094776156 0.7796180483 -0.4401018708 0.8365818211 0.3262532756 0.2696939357 0.7976561642 0.5394532646 0.2716255236 0.8386190708 0.4721627145 0.2090935618 0.6355602557 -0.7431978497 -0.3845984284 0.7536573464 -0.5329959222 -0.2919932721 0.6684288094 0.6840634882 -0.2519074791 0.6666681799 0.7014956592 -0.1773007288 0.9573714526 0.2280446300 0.3002258514 0.5922499780 -0.7477328411 0.2806543532 0.5827420534 -0.7626564320 -0.2984604493 0.4463284623 -0.8436304072 -0.3000622766 0.4872072862 -0.8201168761 -0.1923608971 -0.5414409862 0.8184368905 -0.1957642867 -0.5312693905 0.8242749412 -0.4402892145 0.6284594511 -0.6412364041 0.0843767690 0.9896495845 0.1160786836 -0.6559139158 -0.6631192645 0.3606241481 -0.6477691993 -0.7391163164 -0.1846676344 0.6216110845 -0.6940398557 -0.3631918754 -0.4377384877 0.6553801988 -0.6155175151 -0.1216912046 0.3523745264 -0.9279134894 -0.2329854834 0.2568432301 -0.9379495294 -0.4786335174 0.7628183299 -0.4347621782 -0.1737107437 0.6566884440 0.7338834138 -0.7734360916 -0.6004103174 -0.2032340105 -0.7640898556 -0.6230754413 -0.1671636533 0.2986769522 0.2188525590 -0.9289217597 0.2974142674 0.2166296747 -0.9298474808 -0.2439441932 0.3579149894 -0.9013257408 0.3978260431 0.4542065204 -0.7971391825 0.3423599818 0.4963641726 -0.7977545055 -0.3679676818 0.7958172952 0.4809101973 -0.3649492406 0.8040962842 0.4692986443 -0.8854913280 0.3731743781 0.2768501248 -0.8869868553 0.3678075869 0.2792344848 0.0322163802 0.0956164085 -0.9948967822 0.0299164465 0.0983180671 -0.9947052648 0.0682056684 0.0531567599 -0.9962541572 0.0336829589 0.0939319443 -0.9950086674 0.0706361921 0.0502656598 -0.9962348578 0.0315125727 0.0964893026 -0.9948350478 0.0697446237 0.0513289825 -0.9962434557 -0.9735238126 0.2173006009 0.0709354295 -0.4238564758 -0.7489774164 -0.5092921731 0.4890248541 -0.6031984319 0.6300843942 0.0011466915 0.0684639273 -0.9976529335 0.1759393524 -0.2961255303 -0.9388050994 0.5084282239 -0.3526495604 -0.7855819682 0.1803320672 -0.9835929678 -0.0050218751 0.9711437275 -0.0971646074 -0.2178047283 -0.2651272085 -0.9614075342 0.0735058947 -0.2908762463 -0.5680884867 0.7698483491 0.6003670055 -0.1235927163 -0.7901166364 0.4877604229 0.4212403616 0.7646216892 -0.0679766479 -0.9155847436 -0.3963379274 -0.1218120612 0.3804316646 -0.9167516405 0.3198484511 -0.2090816888 0.9241113654 -0.6040721853 -0.0347770847 -0.7961704273 -0.2391579350 -0.6359416958 0.7337449432 -0.2315474002 -0.6370176364 0.7352512036 0.8045568376 -0.5925275154 0.0399929819 0.5655008399 -0.0072939692 0.8247154649 0.0996577452 0.7561043605 0.6468187766 -0.1534920790 0.6421926972 -0.7510184560 0.7465769013 0.1815173311 -0.6400581137 0.1414904730 -0.5278212873 -0.8374873938 -0.6001472758 -0.5560425716 -0.5750129616 -0.2655356050 0.5367652447 -0.8008582363 -0.8479778093 -0.3158372818 -0.4256529646 -0.7710755320 -0.1248586746 -0.6243819627 0.3590318438 0.2544321368 -0.8979757363 0.3518007558 0.2536786256 -0.9010457165 0.3589468401 0.2544572606 -0.8980025994 0.4646794123 -0.0593572923 0.8834872696 -0.0936863633 -0.1858444356 -0.9781026076 -0.0848664127 -0.1981243239 -0.9764960032 -0.1138776084 -0.6161833558 -0.7793266082 0.0886103904 0.1653442358 0.9822471595 0.7157305648 -0.2994152209 -0.6309360381 0.8781751237 0.0218688340 0.4778391008 0.4082178699 0.9091203915 -0.0828147602 0.9197824361 -0.1472326854 -0.3637620192 0.4277870624 0.5480321582 -0.7187899434 0.4394524934 0.5374470416 -0.7197445266 0.4455987265 0.4935961384 -0.7468631917 -0.0485453047 -0.6506537323 0.7578212678 -0.0481435690 -0.6506584743 0.7578428244 -0.0497860578 -0.6508239315 0.7575945873 -0.0495881381 -0.6508274525 0.7576045430 -0.0496803311 -0.6508523408 0.7575771216 0.3639438961 -0.0156568322 -0.9312892698 0.9432762954 0.2503099802 -0.2181163549 -0.4285993953 0.5268554564 0.7339794864 -0.4289904238 0.5264298119 0.7340564484 -0.4345537057 0.5250265110 0.7317856514 -0.7262425352 0.3025430959 0.6172839339 -0.0362889258 0.2405644460 -0.9699545666 0.0041031114 0.2892646058 -0.9572403838 0.0163251582 0.3096323623 -0.9507161981 0.2013601485 0.3973579035 -0.8952992724 0.1077980879 0.8494516802 -0.5165379126 -0.3693053518 -0.1432355321 -0.9182032125 -0.2700040181 0.0784262849 -0.9596599127 -0.3530755538 -0.2886691702 0.8899481802 -0.3215960524 -0.9253132228 -0.2009264014 0.2932621888 -0.5837419950 -0.7571278438 -0.0298812945 -0.6451835480 -0.7634430546 0.2668562938 0.3719792557 -0.8890552017 0.3191342168 0.1144256558 -0.9407763395 -0.3964559641 0.0135116506 -0.9179543038 -0.3972053705 0.0123037604 -0.9176472694 -0.3732505789 0.0502334717 -0.9263695826 -0.3734681497 0.0499420145 -0.9262976500 0.1842872620 -0.3894535179 0.9024212777 -0.2694275101 0.0358342985 -0.9623537395 -0.2120458892 0.0192425859 -0.9770702450 -0.0860821173 -0.1622091285 0.9829944393 0.6306957109 -0.6959490794 -0.3433333643 0.6344236168 -0.6932936907 -0.3418340722 -0.2452331628 0.8945741268 -0.3736279266 -0.4035564796 0.9127948191 0.0628314097 -0.5502962983 -0.7400389129 0.3866734946 0.1735281098 0.3615584654 -0.9160586614 0.1744356628 0.3463846417 -0.9217319999 0.3688187674 -0.7351850622 -0.5687491900 -0.4895828624 -0.5444929565 -0.6810550941 0.0874897003 0.4826693113 0.8714217626 0.0729892469 0.4577520358 0.8860788021 0.2545292093 0.7719075215 -0.5825578597 0.2177471415 0.8018687988 -0.5564104707 -0.1614660189 -0.9838632231 0.0770836104 -0.0928220077 0.9011136703 0.4235306697 -0.4452120737 -0.8639978601 -0.2351465655 0.7007713955 -0.1018201432 0.7060822258 0.7780970232 -0.0149433825 0.6279663350 -0.1273213536 -0.6337149966 0.7630167599 -0.1228089694 -0.6298715236 0.7669288238 -0.1272899945 -0.6337399491 0.7630012675 -0.1227786518 -0.6299708041 0.7668521296 -0.1228355702 -0.6300186235 0.7668037276 -0.0929346493 -0.6040493085 0.7915096865 -0.1219332991 -0.6310512342 0.7660983033 -0.0934767179 -0.6037156743 0.7917003775 -0.0933552121 -0.6036201316 0.7917875606 -0.0310434202 0.6016893505 0.7981267014 0.5127307035 0.8092235851 -0.2868177382 0.9208295373 0.2509994798 0.2984497014 -0.0789427030 0.2649733767 -0.9610188132 -0.0745088149 0.2682370339 -0.9604672457 -0.0701851813 0.2713462459 -0.9599194004 0.3274751131 0.4936157917 -0.8056695976 0.6858448201 0.7189911164 0.1125551303 -0.1523921524 -0.6449754009 0.7488547016 -0.1524402888 -0.6449533782 0.7488638716 -0.1524537516 -0.6449510349 0.7488631492 -0.1524056495 -0.6449565528 0.7488681880 -0.1524362845 -0.6449530466 0.7488649724 -0.1524562544 -0.6449507250 0.7488629065 -0.1524530034 -0.6449510995 0.7488632459 -0.1523864925 -0.6449587587 0.7488701867 -0.1524015245 -0.6449570277 0.7488686185 0.0626625604 0.755243415