<?xml version="1.0"?>
<VTKFile type="UnstructuredGrid" version="0.1" byte_order="LittleEndian">
  <UnstructuredGrid>
    <FieldData>
      <DataArray type="Float32" Name="TIME"  NumberOfTuples="1" format="ascii"> 4.7000000000 </DataArray>
      <DataArray type="Int32"   Name="STEP"  NumberOfTuples="1" format="ascii"> 470000 </DataArray>
    </FieldData>
    <Piece NumberOfPoints="399" NumberOfCells="399">
      <Points>
        <DataArray type="Float32" NumberOfComponents="3" format="ascii">
 0.4248653505 0.2068252586 0.0759428832 0.5299832359 0.1286325926 0.0400907457 0.5050733080 0.1472906270 0.1825916601 0.6403307138 0.1082661757 0.1124597348 0.5396123977 0.3646965906 0.2040005765 0.5528625191 0.3591023742 0.2072264848 0.5678908267 0.4472842836 0.1939268539 0.7522014717 0.1787389860 0.1457377836 0.7585132476 0.1855915055 0.1501548332 0.6781370558 0.4551488681 0.1694659085 0.8496088113 0.2321591427 0.1150672147 0.7816290871 0.3733976087 0.0369726678 0.7953317245 0.3703146355 0.0373492004 0.8168259560 0.3857434198 0.0431749926 0.8042875292 0.3963505791 0.2240355276 0.8177013498 0.3880442791 0.2261940054 0.8970056199 0.3686628894 0.1723158938 0.7489577994 0.3245511190 0.6726889316 0.7715938321 0.2992914693 0.6582632912 0.7860264660 0.3638995074 0.5621517006 0.8677399398 0.6052378103 0.5111380891 0.9118154862 0.5556478614 0.5587195693 0.8933346620 0.6065771005 0.4947004590 0.9262233961 0.5446452455 0.5458335271 0.9417328754 0.3093611492 0.5254667200 0.9349241801 0.3343195028 0.5344034662 0.9466583713 0.4740609550 0.4508193613 0.2426832003 0.7997982946 0.0414070990 0.2550043054 0.8173392620 0.0914575280 0.0745409705 0.9091236535 0.1097903134 0.1543237105 0.7223195169 0.0815086035 0.0388483041 0.8885767713 0.1662304392 0.0554833743 0.8047839311 0.1553461899 0.0622455211 0.7985058405 0.1588804741 0.1716658526 0.7198411338 0.1453823633 0.1846704330 0.8263777896 0.1958309875 0.5696629334 0.7614160072 0.2455271479 0.6836960336 0.7584632088 0.2617671209 0.6518274054 0.7389198718 0.1620807434 0.7064501346 0.8129145809 0.2796417876 0.6573956080 0.7424563895 0.1621260185 0.6559153487 0.7439887945 0.1560628069 0.6050546460 0.8504648878 0.2446688897 0.6094915357 0.8548460072 0.2417823707 0.5207964299 0.7623146822 0.0984627094 0.7326509126 0.8581094742 0.2193671973 0.7273898882 0.8568455949 0.2066725127 0.5647765486 0.8549310825 0.1613300447 0.5655442286 0.8555398018 0.1539493719 0.1730879481 0.4807040805 0.3236702743 0.1676979606 0.4846858334 0.4415924716 0.1372092659 0.6603892545 0.2434470717 0.0843620210 0.6890418710 0.2636711397 0.1610016657 0.6613731230 0.2414227650 0.2576848550 0.4522145544 0.3447860831 0.2908209626 0.4616810109 0.4187213364 0.2909887335 0.5655092996 0.4523283568 0.3086335689 0.4589966127 0.2813315883 0.1182088061 0.7733038508 0.4080898698 0.2713210319 0.7854265157 0.2555508510 0.4240760482 0.5343443669 0.4164812901 0.4308567729 0.5455604015 0.4205659796 0.2460008014 0.8876087789 0.3715553321 0.3711235794 0.8402718071 0.4486932392 0.3884543385 0.8571710651 0.4473814020 0.4440475192 0.9114116286 0.2749311066 0.5616931566 0.7792376194 0.4616565451 0.7554634750 0.3393615022 0.5253680417 0.7491426008 0.3251157056 0.5221870222 0.7310390561 0.1923226254 0.5211127547 0.6605266657 0.0750019876 0.2089066553 0.6490921663 0.1078240564 0.2421729809 0.6082326727 0.1071848525 0.3161805153 0.5368084391 0.0942198395 0.3297716237 0.6497668725 0.8867022398 0.4452709928 0.6558281991 0.9007450403 0.3525090802 0.6572076251 0.9097056670 0.3464139756 0.7437353836 0.9446356972 0.5283421701 0.6975290661 0.9102989821 0.3310050892 0.7118969810 0.2412322704 0.2823340145 0.6923341727 0.1618251039 0.4376719447 0.7639626360 0.3793130103 0.3440297179 0.7707361020 0.3872252841 0.3523736450 0.5690856513 0.3189431604 0.3113889554 0.5335516181 0.2357772873 0.4478714749 0.4819230204 0.2672510779 0.3471239617 0.4709349471 0.3273643834 0.5039586054 0.4582438878 0.3355683214 0.5055502677 0.3861281626 0.4139791217 0.4441324951 0.5795576184 0.5972596483 0.5628791393 0.1272839951 0.2954921084 0.0794079516 0.1210211918 0.2920255634 0.0845415916 0.1781402566 0.3772359428 0.0528339312 0.1491838318 0.4388043275 0.0568121952 0.0950510534 0.4146553094 0.1045546102 0.2077569330 0.4386273287 0.0527656965 0.1964208623 0.4344284313 0.0567130898 0.2718643554 0.5419337270 0.0599525400 0.1116349906 0.4730196057 0.1348033085 0.1123437840 0.4827924350 0.1420336603 0.1047361679 0.4920112220 0.1450387345 0.0995440272 0.5073281971 0.1534457048 0.1196634484 0.6091643260 0.0768631963 0.1243074015 0.6141214166 0.0785439279 0.0731065478 0.6660885775 0.2039457081 0.0764847610 0.6738817599 0.1942221777 0.1368993371 0.3952855901 0.2410303459 0.2422134376 0.3041290439 0.2229844517 0.2365968006 0.2958150883 0.2228486559 0.2487070682 0.3044898881 0.2244120077 0.2293357373 0.2902092583 0.2219682814 0.2433833933 0.2948293614 0.2245374839 0.2197446892 0.2869283158 0.2202322478 0.2548634479 0.3066655156 0.2255147541 0.2368436160 0.2880812310 0.2239871713 0.2496215368 0.2953274382 0.2258877505 0.2609601885 0.3107895992 0.2263360628 0.2673068705 0.3172670827 0.2268946619 0.2743127955 0.3269065815 0.2271855606 0.0603282311 0.3238591400 0.2405524877 0.2818534450 0.3248940777 0.2291694765 0.2734196694 0.3270487908 0.3139745636 0.2819440577 0.3344277015 0.3145356126 0.0744062776 0.2508625343 0.2704874322 0.0724367414 0.1488440427 0.2300771879 0.1130167434 0.0685982650 0.2994129250 0.1289109419 0.0610859031 0.3107435202 0.2422535625 0.1318701318 0.3407274877 0.2508580948 0.1370574974 0.3419974141 0.2667439667 0.1556162641 0.3433603344 0.2741731015 0.1652456837 0.3438922157 0.2824442336 0.1696901792 0.3451598891 0.8679177211 0.1866464401 0.4388064066 0.8336805515 0.1057840729 0.4125785979 0.7587827729 0.1533910989 0.5977294591 0.7548282331 0.1422543004 0.5935163926 0.7470135888 0.1331149320 0.5912832188 0.2973187097 0.2801239779 0.5031615562 0.2898206806 0.2700269989 0.4140875108 0.2535001744 0.3450425842 0.3698632462 0.3102817188 0.3803418576 0.4286200543 0.6312895091 0.7388026433 0.5144390111 0.6934333579 0.6467628830 0.3835487808 0.7179970599 0.8411231090 0.5228723352 0.7601125243 0.7119195278 0.4431575358 0.7150677234 0.7763953674 0.3773380320 0.7224916176 0.7765642327 0.3764745264 0.7217486396 0.7830361518 0.3798927614 0.5481881912 0.5178811251 0.2034166086 0.6016771569 0.5231818946 0.2544421562 0.6024650391 0.5427589515 0.2596856668 0.6200438127 0.5473504878 0.0836204769 0.6262680572 0.5623855400 0.0836988436 0.6399070020 0.5592326386 0.0832588765 0.7413568310 0.6640248704 0.2510471752 0.8187176892 0.4748238255 0.2427188854 0.8265619137 0.4850382686 0.2453613961 0.7524095317 0.6663459896 0.2524260764 0.8342695780 0.4949641557 0.2478053346 0.7588457542 0.7526340098 0.1137498055 0.7644307965 0.6690105083 0.2538322375 0.7782260605 0.6723033214 0.2552956974 0.8026218771 0.7665642205 0.1615338610 0.8794312555 0.6238430119 0.0942662701 0.9217432326 0.5592535204 0.1912943876 0.8981105844 0.6354671985 0.0942527218 0.9265942923 0.6781195703 0.2684889146 0.9125153039 0.7262491952 0.2334567944 0.9396908053 0.6711485209 0.2630039039 0.3658526524 0.5765588367 0.0833476687 0.4803349577 0.7324424260 0.0279599859 0.4430329761 0.6659639356 0.0961070512 0.4495917391 0.6639640386 0.0952666289 0.4523357581 0.6598792804 0.0965931347 0.3894147465 0.1711525114 0.4216737742 0.3343300871 0.0835969439 0.4717569645 0.1711625552 0.1840703513 0.3885515178 0.2163981403 0.1306974189 0.4587595612 0.1403166082 0.0872428912 0.4244189220 0.9285704554 0.4500576413 0.5810539776 0.2542665451 0.1549631812 0.0768236026 0.2905350619 0.1241721978 0.1289599962 0.3212511146 0.0796911173 0.1134320483 0.3626135823 0.1664948950 0.0989906903 0.3618116093 0.1720328458 0.1001071270 0.3650572847 0.1699175127 0.1024748898 0.3680818959 0.1736261615 0.1065972787 0.3291199859 0.2036817368 0.1572355018 0.3370100403 0.2091289714 0.1616359194 0.0617467083 0.1503421989 0.5058000779 0.1851544792 0.1663336621 0.5386191790 0.1499010274 0.2658904309 0.5712995288 0.1483448977 0.2522241848 0.4787909425 0.0408594184 0.9382737323 0.1632797096 0.1579121302 0.9508840933 0.1726203770 0.1685812183 0.9468864785 0.1683302591 0.4623075852 0.4848407729 0.1661080223 0.4577480446 0.4752228396 0.1662386956 0.5258206706 0.3954500372 0.2669790579 0.8807305481 0.5610003767 0.0484158604 0.8724848483 0.5657488524 0.0455652128 0.8788721927 0.5639569328 0.0436098599 0.9528858873 0.5564837890 0.0824623167 0.0848621366 0.9509146875 0.2972595151 0.0909313526 0.9527344784 0.2984105152 0.1709230973 0.9291512088 0.3642657846 0.7712012983 0.0774324833 0.2849991296 0.7320444858 0.0975390731 0.3049635332 0.7245535976 0.0995460965 0.3031239940 0.8351612896 0.1252678890 0.3223785150 0.8416794400 0.1387115874 0.3278999279 0.7707172589 0.1908858655 0.2038468249 0.7747344271 0.1947188750 0.2066773292 0.3426276604 0.1902179506 0.5344581559 0.3550229251 0.1906348210 0.5362018172 0.4139999495 0.2829447537 0.5664137745 0.9549012186 0.6061795943 0.3610205299 0.8663830781 0.6117986177 0.4001128144 0.8999173205 0.4790677274 0.3659221854 0.9022703272 0.4738061226 0.3628361990 0.8960226015 0.4718838621 0.3635567846 0.9027217663 0.3807539228 0.2926231967 0.8058046248 0.0773919748 0.5900190884 0.3432512420 0.9113997349 0.0686959038 0.3482565807 0.9041869497 0.0728548994 0.2973775498 0.8399041943 0.0897858020 0.2988439829 0.8343472172 0.0890977148 0.8006525385 0.6605803873 0.3595346358 0.6844026940 0.6155008267 0.3399598928 0.6751677578 0.6201204092 0.3384223133 0.1505753678 0.9040896059 0.4534406177 0.1568607572 0.9069185723 0.4543829515 0.1183441784 0.9135208597 0.2299883839 0.1206154413 0.9131855390 0.2376249725 0.2538575640 0.3186005541 0.1147665315 0.2556203462 0.3240389073 0.1154067310 0.2607363861 0.3190390905 0.1151261290 0.2621690044 0.3245772796 0.1156873926 0.2673285714 0.3190364960 0.1154433466 0.2631779644 0.3301134493 0.1161662010 0.2685365165 0.3247190865 0.1158619272 0.3468122958 0.2670682024 0.0577853580 0.2798047058 0.4118685729 0.0597694438 0.1971449501 0.4195477320
[...]
      <PointData Scalars="overlap">
        <DataArray type="Float32" Name="overlap" format="ascii">
 0.0002254888 0.0000175630 0.0002058666 0.0000272312 0.0000866136 0.0000333574 0.0000068453 0.0000517046 0.0002479067 0.0002508234 0.0001091317 0.0000486453 0.0000729271 0.0004923550 0.0000270605 0.0002312633 0.0000930635 0.0000060633 0.0000061124 0.0001282860 0.0000225449 0.0000491576 0.0000313922 0.0000303937 0.0000236652 0.0000097257 0.0001206819 0.0000834470 0.0001927257 0.0001201190 0.0000299715 0.0000288894 0.0000076886 0.0000869285 0.0002829938 0.0000289822 0.0001995466 0.0000835239 0.0000472422 0.0000983282 0.0001042370 0.0001687151 0.0000242073 0.0000127911 0.0001832373 0.0000524341 0.0000014417 0.0000530339 0.0001662166 0.0000601936 0.0000791534 0.0002214832 0.0000634605 0.0000341812 0.0000158198 0.0000084559 0.0000553219 0.0002889964 0.0001528368 0.0000510188 0.0001171586 0.0000167328 0.0000947963 0.0000952778 0.0000259851 0.0003202315 0.0000194039 0.0000906031 0.0000908479 0.0000192375 0.0000292000 0.0000607275 0.0000072335 0.0000864336 0.0000182710 0.0000016569 0.0000080843 0.0000088765 0.0000386389 0.0001859008 0.0000087865 0.0000307494 0.0002617945 0.0001147536 0.0000374852 0.0001252372 0.0000100244 0.0000137105 0.0000041176 0.0000158033 0.0000165727 0.0000396779 0.0000070198 0.0000394337 0.0000271786 0.0001011486 0.0001228866 0.0000460446 0.0000056201 0.0000080794 0.0000275770 0.0000245145 0.0000820799 0.0000443759 0.0000529660 0.0000486423 0.0000602824 0.0000762305 0.0000621909 0.0000974349 0.0000384894 0.0000569095 0.0000137958 0.0001103593 0.0000157899 0.0000254223 0.0001251032 0.0001383714 0.0001233777 0.0000800093 0.0001382706 0.0000156803 0.0000302444 0.0000371225 0.0000324893 0.0000592229 0.0000283409 0.0000085706 0.0000406219 0.0001086530 0.0000464285 0.0000187064 0.0000024483 0.0000396237 0.0000015860 0.0000123563 0.0000048940 0.0000335227 0.0000390014 0.0000605623 0.0000185384 0.0000168043 0.0000082675 0.0000067777 0.0000120957 0.0000222543 0.0000203112 0.0000126603 0.0000103904 0.0000258997 0.0000088513 0.0001699767 0.0000140589 0.0000454757 0.0000110928 0.0000460774 0.0001709532 0.0000240928 0.0001046210 0.0002023976 0.0000361808 0.0000389065 0.0001534897 0.0000029493 0.0000398160 0.0002876884 0.0000076181 0.0000180339 0.0000144578 0.0000431733 0.0000044528 0.0000130456 0.0000080081 0.0000748056 0.0000377158 0.0000594307 0.0000611766 0.0000358835 0.0000602318 0.0000172621 0.0000351253 0.0000002192 0.0000570050 0.0000125247 0.0000175239 0.0000518418 0.0000190862 0.0000528360 0.0000302119 0.0000300007 0.0000204973 0.0000078101 0.0000284784 0.0000113697 0.0000229014 0.0000146142 0.0000044255 0.0000259696 0.0000157670 0.0000056911 0.0000675071 0.0000368876 0.0000020802 0.0000127442 0.0000078077 0.0000002737 0.0000400577 0.0000106353 0.0000493611 0.0000639524 0.0000374125 0.0002481903 0.0000716409 0.0000078652 0.0000103772 0.0000072491 0.0000071262 0.0000117824 0.0000366460 0.0000338335 0.0000538625 0.0000648692 0.0000026885 0.0000081269 0.0000882308 0.0000310448 0.0000607751 0.0000854213 0.0000025884 0.0000074948 0.0000559913 0.0000901945 0.0000005287 0.0000288260 0.0000796816 0.0001169822 0.0003506960 0.0003214172 0.0000396207 0.0000254176 0.0001375632 0.0001622307 0.0000229442 0.0000387998 0.0000069775 0.0000152761 0.0000603171 0.0000176547 0.0000220575 0.0000122009 0.0000312017 0.0000745270 0.0000535404 0.0000058914 0.0000331390 0.0000231265 0.0000207969 0.0000334436 0.0000189494 0.0000232132 0.0000276016 0.0000619752 0.0000031218 0.0000056628 0.0000215625 0.0000014521 0.0000081268 0.0000690092 0.0002010822 0.0001004098 0.0000705174 0.0000618140 0.0000254387 0.0000532107 0.0000845882 0.0000197437 0.0000508433 0.0000228295 0.0001329043 0.0000053208 0.0000218540 0.0000399254 0.0000061137 0.0000134297 0.0000073573 0.0000122003 0.0000692801 0.0000459816 0.0000085913 0.0000062646 0.0000203729 0.0000509736 0.0000423284 0.0000044739 0.0000223365 0.0000264481 0.0000096440 0.0000018851 0.0000134176 0.0000581684 0.0001163160 0.0000070195 0.0000208062 0.0000300665 0.0000081809 0.0000234958 0.0000219237 0.0000728622 0.0000745277 0.0000794915 0.0000090955 0.0000792252 0.0000033673 0.0000339785 0.0000164602 0.0000035458 0.0000090854 0.0000222293 0.0000323809 0.0000314994 0.0000290129 0.0000209588 0.0000060388 0.0000219880 0.0000136738 0.0000218568 0.0000040547 0.0000588824 0.0000081292 0.0000052299 0.0000114340 0.0000607410 0.0000875461 0.0000141656 0.0000074974 0.0000051064 0.0000504051 0.0000601877 0.0000344030 0.0000376172 0.0000593717 0.0000512432 0.0000146729 0.0000059240 0.0000104287 0.0000043951 0.0000065667 0.0000085785 0.0000098254 0.0000055254 0.0000459232 0.0000166849 0.0000076870 0.0000326757 0.0000233989 0.0000007831 0.0000054265 0.0000594988 0.0000461313 0.0000197774 0.0000226709 0.0000419275 0.0000146801 0.0000079848 0.0000069513 0.0000337221 0.0000270132 0.0000105892 0.0000221152 0.0000404785 0.0000195072 0.0000138625 0.0000139481 0.0000066275 0.0000151980 0.0000080417 0.0000100926 0.0000156920 0.0000150768 0.0000046112 0.0000049564 0.0000517132 0.0000115796 0.0000606414 0.0000295819 0.0000317331 0.0000090178 0.0000186175 0.0000046013 0.0000027637 0.0000039155 0.0000651149 0.0000061685 0.0000313825 0.0000109500 0.0000235919 0.0000131097 0.0000245758 0.0001357376
        </DataArray>
        <DataArray type="Float32" Name="contact normal" NumberOfComponents="3" format="ascii">
 0.9747545270 -0.1893198354 -0.1183706553 0.1555822719 0.9312606466 0.3294658780 -0.0006369250 0.6164465989 -0.7873964599 -0.2103086006 0.7157926333 -0.6658912813 0.1103566279 -0.0480250131 -0.9927310879 0.2338344134 -0.1107073286 -0.9659530809 0.5992113448 -0.7720020682 -0.2120343629 -0.3785363268 0.6351393108 -0.6732817428 -0.3288789468 0.6782703245 -0.6571057794 -0.1641726342 -0.9501194474 -0.2651799045 -0.8558113976 0.4668470606 0.2228018711 -0.1400019286 -0.4491036576 0.8824428394 -0.1479978087 -0.4748787505 0.8675176199 -0.1169567031 -0.3830514625 0.9162929153 -0.0083264010 0.0626851667 -0.9979986177 0.0267984994 -0.0943922312 -0.9951743300 -0.8319756912 -0.0603927171 0.5515153389 -0.4684013505 0.3948296525 -0.7903858047 -0.3784751990 -0.4904542696 -0.7849911676 0.4266793827 -0.1496739029 0.8919318512 0.4063650239 -0.1798424232 0.8958371337 -0.6620680054 -0.1481326254 -0.7346582073 0.5876559441 -0.7239431041 0.3613403845 -0.6340819813 -0.2069752295 -0.7450512032 -0.0676145383 -0.3232690426 -0.9438884470 -0.7624902790 0.1937234018 -0.6173166270 0.3124904844 -0.0294206463 0.9494651772 -0.7342339676 -0.5295609536 0.4248125202 -0.7988498080 -0.6010985494 0.0227929408 -0.0013712007 -0.9554461718 0.2951622140 0.3770202893 0.7929111777 0.4786936032 0.3335749906 -0.6196477233 -0.7104677506 0.7209791941 0.5217130188 -0.4560751338 0.7537170428 0.4852910449 -0.4431740303 0.2852131893 0.6836288009 -0.6717924525 -0.4732849547 -0.4351844014 -0.7659085379 0.2186510626 -0.1884223028 -0.9574386396 -0.6235803456 0.7261395336 -0.2896013301 -0.5201703416 0.6631035244 0.5382532226 -0.1223026843 -0.0632378610 -0.9904761614 -0.3277454455 0.7301530999 0.5995493088 -0.7229383202 0.6861787348 0.0807398850 0.4062236752 -0.7683094554 -0.4946543303 0.4403000090 -0.7260657262 -0.5281708656 0.1714100348 0.2531733172 0.9521144214 -0.4363226469 -0.6609550363 0.6105415528 -0.9456343715 -0.3248611997 -0.0155189026 0.6139380995 -0.7892935561 0.0097822464 0.5989297586 -0.8008013945 0.0005204881 0.5472205381 0.8316362185 0.0945033484 0.4998131077 0.7781938313 -0.3802646688 0.0644272754 -0.3623460110 0.9298142258 0.7572564845 -0.0105234515 0.6530328274 0.1054407892 0.2946058413 0.9497839956 -0.1808981909 0.8143212366 -0.5515040962 -0.1033735832 0.6607666795 -0.7434388324 -0.0956982400 0.2005416120 -0.9749999532 -0.2508203154 0.5934723061 0.7647743401 0.4793102114 -0.4879211220 -0.7295167578 0.2611699550 -0.8734906463 0.4108580600 -0.4050193609 0.2950863187 -0.8653804838 -0.5610605443 0.6174390580 -0.5513438812 0.6796915733 -0.6364753951 -0.3645798084 0.1152666104 -0.2602598104 -0.9586336316 0.2785731012 -0.2555691052 -0.9257869408 -0.1151271279 -0.6947415815 0.7099858304 -0.1319870216 -0.1364077497 -0.9818209368 0.1889885743 -0.3259870157 0.9262914144 0.1771343028 -0.3355314754 0.9252254146 -0.3539163791 0.6917201306 -0.6294969877 -0.5815547661 -0.3308893738 0.7431731133 -0.6850142821 -0.6446762264 0.3393346378 -0.3519569221 0.0410002713 -0.9351178015 0.2481378417 0.1400619363 -0.9585459121 0.6234691234 0.3239851881 -0.7115615575 0.9444700209 -0.0566732348 0.3236734837 0.9482894260 0.0855578004 0.3056583506 -0.4734707495 0.6020858519 -0.6428981851 -0.5584193946 0.4656564513 0.6865361237 -0.4312474522 0.6832490725 0.5892336887 0.1343175398 0.8425387439 -0.5216198458 -0.6365635154 -0.7535020168 0.1643824857 0.0926940497 -0.3335352277 0.9381695289 0.0489954307 -0.2190305276 0.9744870834 0.3163039978 0.5396043534 -0.7802428614 0.7737799092 0.4542851771 0.4414630561 0.3336634485 0.5760541710 -0.7462106239 0.2731858276 0.6214736687 -0.7342615220 0.8864808122 0.4479902523 -0.1160021703 -0.3028651270 -0.8435968389 -0.4434152549 -0.2974545423 0.9482578265 0.1110310309 -0.3437148789 0.8246721058 0.4491948352 -0.8803497329 -0.1147575413 -0.4602336956 -0.2751901003 -0.8528882621 -0.4436800887 -0.0722193945 -0.8079357330 -0.5848283598 -0.2014311553 0.9574072957 0.2068737777 -0.5934961990 0.7299745371 0.3389681946 -0.3922064765 -0.5327749024 0.7498833130 0.3396724796 0.5385644069 -0.7710842925 0.3862990221 0.5406374173 -0.7473180371 0.3396577094 0.5385635252 -0.7710914146 0.3396537337 0.5385632878 -0.7710933317 0.1126269551 -0.4601052880 0.8806919399 0.1108340051 -0.4528088085 0.8846920404 -0.0838017212 -0.9413532508 -0.3268506215 0.7066999736 -0.6148228122 -0.3500972107 0.4599507327 -0.3548452657 -0.8139595573 -0.2235100825 0.1352055588 0.9652785608 -0.2231830836 0.1348000049 0.9654109332 -0.2230435410 0.1346273373 0.9654672749 -0.2232300901 0.1348582962 0.9653919239 -0.2225787777 0.1340506345 0.9656547598 -0.2236707719 0.1354048593 0.9652134012 -0.2227717856 0.1342902777 0.9655769534 -0.2224688063 0.1339142764 0.9656990198 -0.1802113250 0.0818536181 0.9802162331 -0.2226773334 0.1341841753 0.9656134901 -0.2226620885 0.1344173255 0.9655845778 -0.2230753897 0.1349967008 0.9654083391 0.1669273641 -0.3145198535 -0.9344584083 -0.2215212569 0.1354764960 0.9656989447 0.2534594950 -0.2169863557 -0.9426957122 0.2505246519 -0.2101650618 -0.9450227752 0.4823436169 -0.3851727616 -0.7867570012 0.7374709175 0.4353346052 0.5163530065 0.4636672427 0.3371329306 -0.8193619928 0.8230622816 -0.5670112105 -0.0326614111 0.2197708786 -0.1326063436 -0.9664969315 0.2253258008 -0.1300570305 -0.9655638002 0.2248724926 -0.1264236918 -0.9661518577 0.2037505517 -0.0979226467 -0.9741133753 0.2245772738 -0.1254510120 -0.9663472935 0.1756610767 -0.7374328173 0.6521779098 0.1958924627 0.1959948231 0.9608393062 -0.0155857512 0.4234290053 -0.9057952097 -0.0707411511 0.3607669566 -0.9299692966 -0.1004621611 0.3256039093 -0.9401539493 -0.0743217896 0.1549459944 -0.9851233478 -0.3376684966 0.8585545792 0.3858290048 0.1560685782 -0.5231862169 0.8378059330 -0.3066377987 -0.9367085965 -0.1689682384 0.9259205600 0.1042809724 -0.3630380081 0.5340535863 0.5979783953 0.5976693114 -0.6750212429 -0.6277558344 -0.3876453716 -0.9195249589 0.3290573704 -0.2149304469 0.0689840224 -0.6885772895 0.7218743111 0.0714484509 -0.6715858329 0.7374737880 0.0633552774 -0.3691978293 0.9271888005 0.4348728315 0.8794804935 -0.1933899739 -0.3197017548 -0.5168096102 -0.7941653573 0.2726953211 0.5234752805 -0.8072241898 -0.0187461897 0.0079266161 0.9997928531 -0.0187560945 0.0079568834 0.9997924269 0.0753937765 -0.0381798114 0.9964226415 0.2195168680 -0.5921854056 -0.7753249577 -0.1204677893 0.3287115418 -0.9367156634 -0.1204809730 0.3287224077 -0.9367101546 0.2194883184 -0.5919974539 -0.7754765584 -0.1204926415 0.3287320243 -0.9367052789 0.1357658053 -0.0261309444 0.9903962943 0.2192779531 -0.5917313714 -0.7757391078 0.2181276198 -0.5917924225 -0.7760167976 -0.3180912404 -0.8153400677 0.4837752958 -0.2059565224 0.1752067087 0.9627484200 -0.8647647699 0.4792066641 -0.1501428185 -0.0545656680 0.3320566468 0.9416798666 -0.6879625435 0.4288504488 -0.5854868327 -0.0387593930 -0.7615539996 -0.6469414310 0.1346742243 -0.2781217540 -0.9510579074 0.6640591992 0.3246326645 -0.6735272920 -0.2386589565 -0.2963320484 0.9247860399 -0.1922985810 -0.3520443503 -0.9160163924 -0.1771596544 -0.3510702724 -0.9194368498 -0.1801632693 -0.3565782661 -0.9167295875 -0.8774161569 0.4309655414 0.2107358291 -0.5001235318 0.4190715724 -0.7577964569 0.5889319687 -0.5446873921 -0.5970550905 0.2174061075 -0.1597249465 -0.9629239461 0.9732603338 0.2297009592 0.0013386901 -0.6193081529 0.5275598364 -0.5814963721 0.9097913322 -0.4077845676 0.0774046395 0.6530786981 0.0527604267 -0.7554499000 0.1091393385 0.9771404856 0.1824419801 -0.6847325300 -0.2364490598 0.6893716012 -0.6894324735 -0.2314185455 0.6863878796 -0.6822161076 -0.2397746100 0.6907165258 -0.6643677938 -0.2351622445 0.7094463710 0.4877504808 -0.4803106773 -0.7289726482 0.7528396793 -0.6492566458 -0.1081583337 0.0332311985 0.4261978735 0.9040193914 -0.6546826789 0.4063265897 0.6374082620 -0.0725814591 -0.4846450752 -0.8716943747 -0.5033501108 -0.6987153266 0.5083655755 0.3390197788 0.2884333709 -0.8954729366 -0.2373887377 0.0128339454 -0.9713299527 -0.2615766752 -0.0587892442 -0.9633906102 0.7522907411 0.2694451905 0.6012137142 0.1439939687 -0.6094786520 0.7796162580 -0.4401159271 0.8365793368 0.3262406840 0.2696937583 0.7976540615 0.5394564625 0.2716255894 0.8386186577 0.4721634103 0.2090916655 0.6355654947 -0.7431939029 -0.3845847773 0.7536655746 -0.5329941377 -0.2919822427 0.6684347523 0.6840623889 -0.2518961718 0.6666738596 0.7014943218 -0.8247882938 0.4462040768 0.3473128160 -0.1772991001 0.9573732867 0.2280381966 0.3002285394 0.5922472903 -0.7477338906 0.2806571571 0.5827395544 -0.7626573096 -0.2984510645 0.4463291631 -0.8436333565 -0.3000530090 0.4872079773 -0.8201198562 -0.1923632175 -0.5414392120 0.8184375188 -0.1957668304 -0.5312672043 0.8242757462 -0.4403134518 0.6284679518 -0.6412114299 0.0843753528 0.9896467490 0.1161038844 -0.6559085099 -0.6631178213 0.3606366339 -0.6477380224 -0.7391378271 -0.1846908955 0.6216307682 -0.6940199904 -0.3631961467 -0.4377209265 0.6553926103 -0.6155167885 -0.1216758713 0.3523836863 -0.9279120217 -0.2329718608 0.2568544441 -0.9379498423 -0.4786262697 0.7628194965 -0.4347681102 -0.1736927713 0.6567000075 0.7338773203 -0.7734280839 -0.6004190555 -0.2032386695 -0.7640815048 -0.6230844117 -0.1671683880 0.2986761474 0.2188550730 -0.9289214262 0.2974134445 0.2166321968 -0.9298471564 -0.2439395263 0.3579255356 -0.9013228159 0.3978208625 0.4542105413 -0.7971394768 0.3423548273 0.4963680960 -0.7977542764 -0.3679622216 0.7958074351 0.4809306911 -0.3649438501 0.8040866493 0.4693193441 -0.8854923765 0.3731739509 0.2768473468 -0.8869879729 0.3678069037 0.2792318345 0.0322070355 0.0956226547 -0.9948964844 0.0299071008 0.0983242721 -0.9947049325 0.0681967301 0.0531632014 -0.9962544253 0.0336736649 0.0939381582 -0.9950083953 0.0706272928 0.0502721013 -0.9962351637 0.0315032822 0.0964954721 -0.9948347436 0.0697357309 0.0513353992 -0.9962437476 -0.9735268401 0.2172883088 0.0709315331 -0.4238666478 -0.7489809949 -0.5092784447 0.4890323381 -0.6031938283 0.6300829927 0.0011441189 0.0684577605 -0.9976533597 0.1759346046 -0.2961200370 -0.9388077218 0.5084289558 -0.3526563185 -0.7855784607 0.1803343659 -0.9835925326 -0.0050245613 0.9711449198 -0.0971708169 -0.2177966417 -0.2651227372 -0.9614103576 0.0734850899 -0.2908670960 -0.5680926640 0.7698487238 0.6003619839 -0.1235805747 -0.7901223512 0.4877583860 0.4212429376 0.7646215694 -0.0679953721 -0.9155815206 -0.3963421609 -0.1218732379 0.3804074819 -0.9167535446 0.3198470975 -0.2090813762 0.9241119047 -0.6040768193 -0.0347646694 -0.7961674536 -0.2391590565 -0.6359419737 0.7337443368 -0.2315483322 -0.6370179448 0.7352506428 0.8045610682 -0.5925215025 0.0399969577 0.5654804670 -0.0073135531 0.8247292606 0.0996566075 0.7560981269 0.6468262387 -0.1534847480 0.6421893488 -0.7510228175 0.7465862979 0.1815150240 -0.6400478074 0.1414888850 -0.5278165314 -0.8374906594 -0.6001523040 -0.5560352366 -0.5750148065 -0.2655327805 0.5367701394 -0.8008558921 -0.8479744033 -0.3158355213 -0.4256610563 -0.7710782556 -0.1248555546 -0.6243792231 0.3590313385 0.2544342174 -0.8979753488 0.3518002015 0.2536807510 -0.9010453345 0.3589462752 0.2544593356 -0.8980022372 0.4646803524 -0.0593481242 0.8834873911 -0.0936983636 -0.1858363625 -0.9781029920 -0.0848785612 -0.1981166302 -0.9764965083 -0.1139077829 -0.6161846963 -0.7793211386 0.0886037628 0.1653614097 0.9822448663 0.7157421711 -0.2994454746 -0.6309085134 0.8781610674 0.0218745898 0.4778646691 0.4081793762 0.9091396295 -0.0827933025 0.9197994500 -0.1472208036 -0.3637238055 0.4277905115 0.5480269424 -0.7187918674 0.4394557606 0.5374417610 -0.7197464748 -0.0485456143 -0.6506541161 0.7578209185 -0.0481438798 -0.6506588581 0.7578424752 -0.0497863618 -0.6508243152 0.7575942377 -0.0495884422 -0.6508278362 0.7576041935 -0.0496806339 -0.6508527245 0.7575767721 0.3639466913 -0.0156350033 -0.9312885442 0.9432760123 0.2503090539 -0.2181186425 -0.4285923644 0.5268818317 0.7339646590 -0.4289833931 0.5264561908 0.7340416389 -0.4345467349 0.5250527729 0.7317709483 -0.7262313414 0.3025694947 0.6172841645 -0.0362811952 0.2405688466 -0.9699537643 0.0041104220 0.2892685068 -0.9572391736 0.0163336137 0.3096376700 -0.9507143243 0.2013696161 0.3973539287 -0.8952989071 0.1078132858 0.8494471352 -0.5165422150 -0.3693019639 -0.1432360563 -0.9182044933 -0.2700003398 0.0784244854 -0.9596610947 -0.3530755762 -0.2886886595 0.8899418495 -0.3215950299 -0.9253119904 -0.2009337131 0.2932610676 -0.5837354600 -0.7571333165 -0.0298838062 -0.6451771021 -0.7634484037 0.2668502954 0.3719929713 -0.8890512635 0.3191402163 0.1144377821 -0.9407728293 -0.3964358537 0.0135286905 -0.9179627381 -0.3971852434 0.0123209027 -0.9176557512 -0.3732294074 0.0502499459 -0.9263772193 -0.3734469559 0.0499585420 -0.9263053035 0.1842532688 -0.3894802871 0.9024166659 -0.2693874187 0.0358329868 -0.9623650117 -0.2120058785 0.0192422419 -0.9770789342 -0.0860935856 -0.1622266712 0.9829905400 0.6306454155 -0.6960221320 -0.3432776597 0.6343744885 -0.6933662874 -0.3417779980 -0.2452324382 0.8945700715 -0.3736381115 -0.4035360413 0.9128036927 0.0628337650 -0.5502994064 -0.7400336934 0.3866790605 0.1735310830 0.3615627370 -0.9160564123 0.1744386586 0.3463888832 -0.9217298389 0.3688300146 -0.7351872470 -0.5687390722 -0.4895737006 -0.5444957207 -0.6810594702 0.0874892204 0.4826734456 0.8714195208 0.0729884993 0.4577570294 0.8860762839 0.2545715638 0.7718907008 -0.5825616405 0.2177897155 0.8018541815 -0.5564148735 -0.1614335987 -0.9838698544 0.0770668724 -0.0928254280 0.9011118048 0.4235338890 -0.4452228419 -0.8639966338 -0.2351306824 0.7007706490 -0.1018117720 0.7060841738 0.7780991059 -0.0149315006 0.6279640369 -0.1273534775 -0.6337177081 0.7630091468 -0.1228410393 -0.6298743409 0.7669213739 -0.1273222177 -0.6337427452 0.7629935686 -0.1228108215 -0.6299737070 0.7668445936 -0.1228678368 -0.6300216058 0.7667961078 -0.0929667562 -0.6040531909 0.7915029532 -0.1219657110 -0.6310543106 0.7660906098 -0.0935088997 -0.6037196107 0.7916935754 -0.0933874703 -0.6036241363 0.7917807036 -0.0310396931 0.6017028579 0.7981166633 0.5127465514 0.8092102932 -0.2868269083 0.9208305847 0.2509965903 0.2984489000 -0.0789230985 0.2649719207 -0.9610208248 -0.0744894009 0.2682357688 -0.9604691049 -0.0701659329 0.2713451797 -0.9599211089 0.3275204936 0.4936392151 -0.8056367988 0.6858758216 0.7189628575 0.1125467321 -0.1523928629 -0.6449738686 0.7488558767 -0.1524409993 -0.6449518460 0.7488650466 -0.1524544620 -0.6449495027 0.7488643242 -0.1524063598 -0.6449550205 0.7488693631 -0.1524369949 -0.6449515143 0.7488661474 -0.1524569648 -0.6449491928 0.7488640815 -0.1524537137 -0.6449495673 0.7488644209 -0.1523872029 -0.6449572265 0.7488713617 -0.1524022349 -0.6449554955 0.7488697935 0.0626435128 0.755245736