<?xml version="1.0"?>
<VTKFile type="UnstructuredGrid" version="0.1" byte_order="LittleEndian">
  <UnstructuredGrid>
    <FieldData>
      <DataArray type="Float32" Name="TIME"  NumberOfTuples="1" format="ascii"> 1.7500000000 </DataArray>
      <DataArray type="Int32"   Name="STEP"  NumberOfTuples="1" format="ascii"> 175000 </DataArray>
    </FieldData>
    <Piece NumberOfPoints="377" NumberOfCells="377">
      <Points>
        <DataArray type="Float32" NumberOfComponents="3" format="ascii">
 0.4248695867 0.2068403040 0.0759223838 0.5299864063 0.1286409516 0.0400848408 0.5050601971 0.1473036952 0.1825814403 0.6403228555 0.1082722573 0.1124646706 0.5396099771 0.3647072625 0.2039890410 0.5528611060 0.3591114796 0.2072106411 0.5678930273 0.4472949297 0.1939196770 0.7521960196 0.1787336251 0.1457602258 0.7585076345 0.1855854001 0.1501781651 0.6781437462 0.4551483676 0.1694709301 0.8496070059 0.2321505804 0.1150987339 0.7816481370 0.3733929811 0.0369876621 0.7953506971 0.3703096804 0.0373653750 0.8168456065 0.3857387767 0.0431882189 0.8176969500 0.3880402946 0.2262354535 0.8970123289 0.3686518598 0.1723465368 0.7858589220 0.3648040265 0.5629366701 0.8978584496 0.5666744632 0.5706814930 0.8937754382 0.6069387123 0.4945387281 0.9466543504 0.4741299177 0.4510108785 0.2426728402 0.7997908693 0.0414055697 0.2549976012 0.8173332949 0.0914539040 0.0745395472 0.9091245354 0.1097983357 0.1543162327 0.7223183647 0.0815211027 0.0388508466 0.8885828474 0.1662450992 0.0554838841 0.8047873409 0.1553621104 0.0622460276 0.7985091713 0.1588962393 0.1716628748 0.7198398822 0.1453935756 0.1846747275 0.8263800317 0.1958326237 0.5696317845 0.7614140792 0.2455090236 0.6836542576 0.7584510838 0.2617586743 0.6518062405 0.7389033598 0.1620668418 0.7064238561 0.8128884744 0.2796457612 0.6573730065 0.7424392210 0.1621130975 0.6558954276 0.7439736072 0.1560537298 0.6050386744 0.8504563827 0.2446598123 0.6094758680 0.8548382626 0.2417749386 0.5207832800 0.7623309919 0.0984473827 0.7326382778 0.8580815531 0.2193740078 0.7273771536 0.8568191922 0.2066781486 0.5647689824 0.8549363382 0.1613171946 0.5655370792 0.8555461126 0.1539366482 0.1730986477 0.4806885932 0.3236471395 0.1677232388 0.4846594109 0.4415678302 0.1371919823 0.6603801966 0.2434506130 0.0843431926 0.6890242359 0.2636835835 0.1609844297 0.6613677201 0.2414271672 0.2577018372 0.4522003819 0.3447542311 0.2908406578 0.4616792618 0.4186686246 0.3086416025 0.4590031520 0.2812941993 0.1181959662 0.7732705864 0.4081095815 0.2712910659 0.7854310268 0.2555573580 0.4240829401 0.5343494372 0.4164249618 0.4308580492 0.5455735956 0.4205139014 0.2459730486 0.8875932357 0.3715769224 0.3711083150 0.8402589266 0.4486857650 0.4440053418 0.9114303590 0.2749389221 0.5616844989 0.7792467976 0.4616327895 0.7494367485 0.3258645923 0.5224620081 0.7327897582 0.1929059424 0.5197630356 0.6604814346 0.0749627827 0.2089323927 0.6490549209 0.1077942063 0.2421916099 0.6081822959 0.1071781100 0.3161937479 0.5367506362 0.0942410266 0.3297733273 0.6495643028 0.8868361495 0.4453958939 0.6557474040 0.9007261529 0.3526193765 0.7435177522 0.9447768184 0.5284789784 0.6974827844 0.9101916469 0.3311446142 0.7119726958 0.2411955213 0.2824755754 0.6923601313 0.1618397723 0.4378300921 0.7640268383 0.3792943012 0.3441306039 0.7707933933 0.3872129372 0.3524563396 0.5691578061 0.3189105449 0.3114579126 0.5335756563 0.2357989307 0.4479480364 0.4819701841 0.2672290780 0.3471652067 0.4709437611 0.3274117429 0.5039751237 0.3861574776 0.4140021723 0.4440928868 0.5795492722 0.5973230804 0.5628368908 0.1272978866 0.2954943315 0.0794186758 0.1210346810 0.2920275917 0.0845515822 0.1781443138 0.3772422008 0.0528402598 0.1491783386 0.4388069260 0.0568034310 0.0950399886 0.4146551142 0.1045380583 0.2077601586 0.4386276187 0.0527600832 0.1964235467 0.4344292262 0.0567057484 0.2718685688 0.5419305317 0.0599652905 0.1116288607 0.4730177823 0.1347878670 0.1123372123 0.4827902557 0.1420187647 0.1047294235 0.4920089880 0.1450236401 0.0995367757 0.5073256198 0.1534309227 0.1196689818 0.6091659065 0.0768601267 0.1243128207 0.6141229406 0.0785414163 0.0730976006 0.6660825542 0.2039401301 0.0764770425 0.6738765973 0.1942177466 0.1369225107 0.3952735397 0.2409979087 0.1237900983 0.3856370720 0.2402966941 0.2422394194 0.3041148638 0.2229836232 0.2366230054 0.2958007542 0.2228480860 0.2487330298 0.3044759303 0.2244112400 0.2293620980 0.2901947012 0.2219678452 0.2434096096 0.2948152716 0.2245370160 0.2197711519 0.2869134416 0.2202318264 0.2548893430 0.3066517608 0.2255139681 0.2368700138 0.2880669531 0.2239868829 0.2496477097 0.2953135992 0.2258872359 0.2609859672 0.3107760355 0.2263351849 0.2673324705 0.3172537087 0.2268936087 0.2743381287 0.3268934126 0.2271842162 0.0603518194 0.3238468790 0.2405252654 0.2818788193 0.3248811777 0.2291682804 0.2734348635 0.3270509064 0.3139696983 0.2819576628 0.3344312285 0.3145359049 0.0744277114 0.2508547949 0.2704726017 0.0724602086 0.1488273499 0.2300794992 0.1130360332 0.0685970384 0.2994367490 0.1289283156 0.0610866621 0.3107715072 0.2422668470 0.1318772354 0.3407556595 0.2508710169 0.1370650131 0.3420264129 0.2667561547 0.1556244041 0.3433896080 0.2741849785 0.1652540375 0.3439215090 0.2824557262 0.1696989767 0.3451899858 0.8688184389 0.1863964283 0.4381975768 0.8333198934 0.1058662098 0.4126372317 0.7482874340 0.1352860165 0.5917864047 0.2872397436 0.2699897612 0.5035618985 0.2974109363 0.2802237211 0.5031616434 0.2897888756 0.2700384555 0.4141091061 0.2534927456 0.3450433825 0.3698464874 0.3103867201 0.3803474572 0.4284938926 0.6315055159 0.7387165179 0.5145663926 0.6934587262 0.6467408846 0.3835409886 0.7182403933 0.8410177137 0.5229425917 0.7578253012 0.7096024017 0.4492853081 0.7151065348 0.7763726855 0.3773764473 0.7225294658 0.7765393246 0.3765048231 0.6016782845 0.5231702650 0.2544582693 0.6024634509 0.5427498015 0.2597024511 0.6200670763 0.5473083923 0.0836324434 0.6262890340 0.5623444159 0.0837098221 0.6399277152 0.5591938052 0.0832667310 0.7307118012 0.6618628650 0.2496831405 0.7413399194 0.6640331186 0.2510548091 0.8187298136 0.4748409625 0.2427865110 0.8265723979 0.4850564545 0.2454299862 0.7523921018 0.6663560926 0.2524347404 0.8342785205 0.4949832948 0.2478748180 0.7588347518 0.7526184144 0.1137450601 0.7644127972 0.6690226034 0.2538419845 0.7782073951 0.6723176611 0.2553066255 0.8026023258 0.7665657837 0.1615310357 0.9217501639 0.5592772837 0.1913518219 0.8981202145 0.6354627899 0.0942763364 0.9265712846 0.6781609364 0.2685216687 0.9124909971 0.7262793862 0.2334772195 0.9396706358 0.6711895579 0.2630389029 0.3658462838 0.5765526100 0.0834012176 0.4803035902 0.7324059811 0.0278849334 0.4430257302 0.6659667184 0.0960823903 0.4495844427 0.6639668046 0.0952417315 0.4523288060 0.6598824916 0.0965686016 0.3894000551 0.1711881267 0.4217276304 0.3343243372 0.0836267308 0.4718114293 0.1711527013 0.1840568312 0.3885580965 0.2187896616 0.1388064719 0.4584398907 0.2163846780 0.1307019832 0.4587822712 0.1403198130 0.0872276007 0.4244312823 0.1412509509 0.0939097298 0.4109607450 0.2542773405 0.1549609809 0.0768195642 0.3212444054 0.0796851127 0.1134524465 0.3626268808 0.1664745725 0.0989868416 0.3618251723 0.1720127105 0.1001025746 0.3650711190 0.1698976071 0.1024702494 0.3680963119 0.1736067491 0.1065917724 0.3291414764 0.2036841621 0.1572169865 0.3370314776 0.2091321030 0.1616187246 0.0617499945 0.1503367876 0.5057971446 0.1851475803 0.1663548165 0.5386352219 0.1498686245 0.2659045323 0.5713085447 0.1483307132 0.2522359300 0.4787984276 0.0408557036 0.9383016002 0.1632506139 0.1579058821 0.9509071820 0.1726308874 0.1685751298 0.9469066197 0.1683423372 0.4622829983 0.4847631228 0.1661434298 0.4577347366 0.4751398934 0.1662690019 0.5259150046 0.3953812146 0.2669501663 0.8807124465 0.5609995150 0.0484321208 0.8724663117 0.5657468009 0.0455811619 0.8788537368 0.5639556202 0.0436280041 0.9528723371 0.5564801580 0.0824696405 0.0848743780 0.9510498736 0.2972094055 0.7712106237 0.0774079265 0.2850260386 0.7245969860 0.0995459715 0.3032074904 0.8352389121 0.1252136326 0.3223279969 0.8417689073 0.1386559579 0.3278388419 0.7706769729 0.1908711079 0.2038768079 0.7746990330 0.1947007453 0.2067045317 0.3424942051 0.1902557706 0.5345957815 0.3548896455 0.1906498575 0.5363344246 0.4141046966 0.2828599397 0.5663846812 0.4041905574 0.2899827735 0.5589220225 0.9549561247 0.6061487498 0.3611189810 0.8999769985 0.4790287970 0.3659793886 0.9023284558 0.4737671689 0.3629001534 0.8960828469 0.4718456045 0.3636229201 0.9027587036 0.3807499788 0.2926302796 0.3432403628 0.9113962630 0.0686902167 0.3482468186 0.9041842992 0.0728493131 0.2973701983 0.8398996285 0.0897838282 0.2988368124 0.8343426953 0.0890957786 0.8006058797 0.6606364220 0.3595243641 0.7129661392 0.7599044368 0.2939457136 0.6843742930 0.6155171500 0.3399768114 0.6751375691 0.6201329786 0.3384390401 0.1505666551 0.9040903696 0.4534238569 0.1568519028 0.9069204324 0.4543646344 0.1183430874 0.9135491598 0.2299995573 0.1206149235 0.9132201128 0.2376362593 0.2538647113 0.3186048012 0.1147685844 0.2556281860 0.3240429709 0.1154085797 0.2607436963 0.3190426085 0.1151269667 0.2621769571 0.3245806680 0.1156881530 0.2673359207 0.3190392788 0.1154430886 0.2631865798 0.3301166653 0.1161668595 0.2685445027 0.3247217618 0.1158616044 0.3468010811 0.2670539719 0.0577778678 0.2798109079 0.4118615512 0.0597537529 0.1971606669 0.4195464934 0.3309384945 0.0960025365 0.1830462914 0.3770893432 0.1388679579 0.2200069780 0.3840019392 0.0863619570 0.2774901129 0.2976319942 0.4081389329 0.1183939001 0.4690925010 0.4586600197 0.1612508652 0.4646935434 0.5474451990 0.0734767862 0.3945653893 0.2104283902 0.9246742088 0.4358184132 0.2037141861 0.9441720810 0.2493526183 0.4844268126 0.2609015671 0.5234265046 0.5159871048 0.1900420039 0.5207904244 0.4480840731 0.1902069445 0.4321575644 0.7876823288 0.0604388938 0.2304810575 0.7452443901 0.0904716466 0.1135619426 0.7473511580 0.0847579125 0.1100347452 0.5441199503 0.9293521163 0.2836840767 0.5806507911 0.9172062551 0.2163531085 0.9297548692 0.1575310008 0.2732537720 0.9335085739 0.1654277674 0.3151481273 0.9081826910 0.3139787919 0.3511348997 0.9202647242 0.3918125933 0.3644046701 0.9292156308 0.4903528456 0.0540002317 0.9374544990 0.5080828562 0.0516214996 0.4215086111 0.9073081050 0.0808121258 0.4207388224 0.9139060514 0.0801981486 0.3612075504 0.9025966030 0.1293158834 0.3545230636 0.9049126047 0.1273126651 0.3593692692 0.9112290163 0.1310306852 0.5774493954 0.7442627530 0.4993567118 0.5337156926 0.8246799244 0.0370934115 0.5433353388 0.8164929130 0.0375225316 0.5642053636 0.8933204195 0.0198609057 0.4636465826 0.8172498723 0.5037664526 0.4045074454 0.8275472492 0.5523634016 0.9747986488 0.8497191012 0.2396369346 0.9603142169 0.7170973987 0.3204110964 0.9389395575 0.8824858441 0.4046052644 0.8712171985 0.0872067575 0.2305271028 0.8753299626 0.0821626755 0.2292465430 0.9055982882 0.1098766390 0.1605545777 0.9067933262 0.1050728863 0.1564915411 0.9023440576 0.1017726413 0.1534208625 0.9030982169 0.0948481270 0.1475231839 0.9030799699 0.0847330635 0.1388291751 0.4835320438 0.8947004409 0.0915548516 0.2215972909 0.0588286243 0.0857700702 0.1134872157 0.8191836812 0.4329292153 0.1104182412 0.8171980468 0.4325950761 0.1069165351 0.8153520672 0.4318894458 0.2322399435 0.8782664008 0.4726381631 0.2956471543 0.8896874683 0.1446796264 0.2965076010 0.8939352061 0.1462782432 0.2983036973 0.8872819696 0.1451349103 0.2989962963 0.8700997698 0.1404498198 0.3666160509 0.8040297929 0.1303169240 0.3963288795 0.9317621622 0.1837052170 0.4111268441 0.9315661486 0.1815409731 0.4012048061 0.9056709576 0.1524614482 0.1590018276 0.1246933340 0.0239317347 0.0940045555 0.1063496364 0.0904360737 0.0876494471 0.1100385298 0.0874441571 0.1062395022 0.2156215821 0.0762197386 0.2005815119 0.1345738314 0.0795072436 0.8185745334 0.8958821383 0.0979345059 0.8127038350 0.8990423308 0.1005301870 0.8165937876 0.9079799639 0.0989765845 0.8108794544 0.9117712681 0.1014558147 0.8011376990 0.9059926323 0.2688823789 0.8277175226 0.9023995093 0.3705176301 0.8226147104 0.8813092539 0.3712340481 0.1571301392 0.3238621163 0.5555215146 0.8143389048 0.6784572510 0.4448624283 0.8944682824 0.3796206507 0.3968157132 0.0647447132 0.1017086322 0.4688633057 0.1126131490 0.2208702385 0.3924074966 0.6895113033 0.0704287508 0.3676271679 0.6949251735 0.0642521393 0.3646151179 0.8756363595 0.1926020082 0.3770934857 0.8663331426 0.1970643710 0.3759156706 0.8711343009 0.0358312143 0.3240823686 0.8648971340 0.0294366486 0.3279798097 0.8446032799 0.0283835258 0.3666261510 0.8368294438 0.0324818549 0.3717349007 0.2791746954 0.4772981462 0.5227015200 0.2626776739 0.4771564257 0.5199609958 0.3970321929 0.1374275574 0.0565622187 0.4240376946 0.3158497661 0.1081559008 0.8859206271 0.8594283725 0.2074165010 0.8889809550 0.8512022722 0.2012650886 0.8234305642 0.8789788461 0.1568697476 0.8254746556 0.8820194770 0.1595191247 0.8195639606 0.8818198009 0.1585909643 0.8215448405 0.8848566846 0.1611980419 0.8176870686 0.8876417274 0.1628654215 0.8195882541 0.8909080956 0.1656337245 0.8138109093 0.8905228594 0.1646220973 0.8155469890 0.8939777451 0.1674825517 0.8113272862 0.8974355487 0.1696270280 0.5566076110 0.0628213551 0.5266593579 0.5086052619 0.0970688830 0.5916198813 0.2112629735 0.1277961179 0.1302217886 0.1092943469 0.2036159945 0.1094828270 0.0718885044 0.6621334388 0.5025560537 0.0567386241 0.6567017489 0.4926884556 0.5766939865 0.5357910561 0.0339479080 0.9094841332 0.1044795489 0.0858429393 0.9073566090 0.1101501997 0.0902963860 0.9068377300 0.1145681039 0.0939971149 0.9097951025 0.1435255099 0.1195397113 0.9077396453 0.1181619273 0.0972711457 0.9073285831 0.1329996782 0.1099735771 0.9101371988 0.1211711435 0.1003437076 0.9096141378 0.1284156863 0.1064807810 0.6297035142 0.0632592209 0.4051244970 0.6173233776 0.0622060020 0.4022500527 0.5455816026 0.0799198469 0.3619629815 0.9412214533 0.2743723579 0.1304889959 0.9269530776 0.2777898438 0.1308306339 0.3672807521 0.4698147298 0.0749263578 0.2030474653 0.6324890681 0.0592181901 0.1974487703 0.6197628705 0.0527598497 0.3277727880 0.6602258222 0.1367061132 0.3709500504 0.5213032439 0.0764946765 0.9708304233 0.3529228547 0.0776047709 0.9715755932 0.3565452526 0.0752583851 0.9699389928 0.3599397439 0.0787216754 0.9705876337 0.3630710221 0.0765696865 0.9254352535 0.4582021265 0.1274904305 0.9322702709 0.4571181818 0.1148366736 0.3941424359 0.7294397262 0.1180886632 0.3965669075 0.7258769351 0.1194234005 0.5179163333 0.4794943883 0.0655536680 0.1208251338 0.4921142723 0.4553138559 0.0902176673 0.3602001491 0.3689157450 0.0793660633 0.3464209293 0.4394398205 0.0843098519 0.3413772213 0.4388210820 0.0954007265 0.3509463644 0.3720716683 0.2817163662 0.8395795991 0.4719935997 0.3744401560 0.0853869853 0.4940043312 0.3203435953 0.0700556062 0.5278065695 0.3182779622 0.0715578894 0.5300298895 0.3091815361 0.0718117312 0.5360654723 0.7020424337 0.0436532301 0.4455080043 0.0713072254 0.4061172419 0.2645579950 0.1026118416 0.4555834864 0.2208793855 0.0961911616 0.4531100043 0.2182952208 0.4016720906 0.0681240275 0.5391642620 0.8381494603 0.8937954630 0.4465985600 0.5252082581 0.0169287693 0.5119013705 0.4813087501 0.9184109013 0.1873974329 0.4755484620 0.9124250150 0.1836287278
        </DataArray>
      </Points>
      <Cells>
        <DataArray type="Int32" Name="connectivity" format="ascii">
 0 1 2 3 4 5 6 7 8 9 10 11 12 13 14 15 16 17 18 19 20 21 22 23 24 25 26 27 28 29 30 31 32 33 34 35 36 37 38 39 40 41 42 43 44 45 46 47 48 49 50 51 52 53 54 55 56 57 58 59 60 61 62 63 64 65 66 67 68 69 70 71 72 73 74 75 76 77 78 79 80 81 82 83 84 85 86 87 88 89 90 91 92 93 94 95 96 97 98 99 100 101 102 103 104 105 106 107 108 109 110 111 112 113 114 115 116 117 118 119 120 121 122 123 124 125 126 127 128 129 130 131 132 133 134 135 136 137 138 139 140 141 142 143 144 145 146 147 148 149 150 151 152 153 154 155 156 157 158 159 160 161 162 163 164 165 166 167 168 169 170 171 172 173 174 175 176 177 178 179 180 181 182 183 184 185 186 187 188 189 190 191 192 193 194 195 196 197 198 199 200 201 202 203 204 205 206 207 208 209 210 211 212 213 214 215 216 217 218 219 220 221 222 223 224 225 226 227 228 229 230 231 232 233 234 235 236 237 238 239 240 241 242 243 244 245 246 247 248 249 250 251 252 253 254 255 256 257 258 259 260 261 262 263 264 265 266 267 268 269 270 271 272 273 274 275 276 277 278 279 280 281 282 283 284 285 286 287 288 289 290 291 292 293 294 295 296 297 298 299 300 301 302 303 304 305 306 307 308 309 310 311 312 313 314 315 316 317 318 319 320 321 322 323 324 325 326 327 328 329 330 331 332 333 334 335 336 337 338 339 340 341 342 343 344 345 346 347 348 349 350 351 352 353 354 355 356 357 358 359 360 361 362 363 364 365 366 367 368 369 370 371 372 373 374 375 376
        </DataArray>
        <DataArray type="Int32" Name="offsets" format="ascii">
 1 2 3 4 5 6 7 8 9 10 11 12 13 14 15 16 17 18 19 20 21 22 23 24 25 26 27 28 29 30 31 32 33 34 35 36 37 38 39 40 41 42 43 44 45 46 47 48 49 50 51 52 53 54 55 56 57 58 59 60 61 62 63 64 65 66 67 68 69 70 71 72 73 74 75 76 77 78 79 80 81 82 83 84 85 86 87 88 89 90 91 92 93 94 95 96 97 98 99 100 101 102 103 104 105 106 107 108 109 110 111 112 113 114 115 116 117 118 119 120 121 122 123 124 125 126 127 128 129 130 131 132 133 134 135 136 137 138 139 140 141 142 143 144 145 146 147 148 149 150 151 152 153 154 155 156 157 158 159 160 161 162 163 164 165 166 167 168 169 170 171 172 173 174 175 176 177 178 179 180 181 182 183 184 185 186 187 188 189 190 191 192 193 194 195 196 197 198 199 200 201 202 203 204 205 206 207 208 209 210 211 212 213 214 215 216 217 218 219 220 221 222 223 224 225 226 227 228 229 230 231 232 233 234 235 236 237 238 239 240 241 242 243 244 245 246 247 248 249 250 251 252 253 254 255 256 257 258 259 260 261 262 263 264 265 266 267 268 269 270 271 272 273 274 275 276 277 278 279 280 281 282 283 284 285 286 287 288 289 290 291 292 293 294 295 296 297 298 299 300 301 302 303 304 305 306 307 308 309 310 311 312 313 314 315 316 317 318 319 320 321 322 323 324 325 326 327 328 329 330 331 332 333 334 335 336 337 338 339 340 341 342 343 344 345 346 347 348 349 350 351 352 353 354 355 356 357 358 359 360 361 362 363 364 365 366 367 368 369 370 371 372 373 374 375 376 377
        </DataArray>
        <DataArray type="UInt8" Name="types" format="ascii">
 1 1 1 1 1 1 1 1 1 1 1 1 1 1 1 1 1 1 1 1 1 1 1 1 1 1 1 1 1 1 1 1 1 1 1 1 1 1 1 1 1 1 1 1 1 1 1 1 1 1 1 1 1 1 1 1 1 1 1 1 1 1 1 1 1 1 1 1 1 1 1 1 1 1 1 1 1 1 1 1 1 1 1 1 1 1 1 1 1 1 1 1 1 1 1 1 1 1 1 1 1 1 1 1 1 1 1 1 1 1 1 1 1 1 1 1 1 1 1 1 1 1 1 1 1 1 1 1 1 1 1 1 1 1 1 1 1 1 1 1 1 1 1 1 1 1 1 1 1 1 1 1 1 1 1 1 1 1 1 1 1 1 1 1 1 1 1 1 1 1 1 1 1 1 1 1 1 1 1 1 1 1 1 1 1 1 1 1 1 1 1 1 1 1 1 1 1 1 1 1 1 1 1 1 1 1 1 1 1 1 1 1 1 1 1 1 1 1 1 1 1 1 1 1 1 1 1 1 1 1 1 1 1 1 1 1 1 1 1 1 1 1 1 1 1 1 1 1 1 1 1 1 1 1 1 1 1 1 1 1 1 1 1 1 1 1 1 1 1 1 1 1 1 1 1 1 1 1 1 1 1 1 1 1 1 1 1 1 1 1 1 1 1 1 1 1 1 1 1 1 1 1 1 1 1 1 1 1 1 1 1 1 1 1 1 1 1 1 1 1 1 1 1 1 1 1 1 1 1 1 1 1 1 1 1 1 1 1 1 1 1 1 1 1 1 1 1 1 1 1 1 1 1 1 1 1 1 1 1 1 1 1 1 1 1 1 1 1 1 1 1 1 1 1 1 1 1
        </DataArray>
      </Cells>
      <PointData Scalars="overlap">
        <DataArray type="Float32" Name="overlap" format="ascii">
 0.0002270556 0.0000180763 0.0002079336 0.0000361020 0.0000907503 0.0000501087 0.0000022591 0.0000448718 0.0002401655 0.0002555252 0.0001138820 0.0000375607 0.0000603757 0.0004689757 0.0001962064 0.0000805298 0.0000915862 0.0001988185 0.0000464327 0.0000630035 0.0000832951 0.0001963156 0.0001190051 0.0000349480 0.0000234398 0.0000077615 0.0000864791 0.0002788941 0.0000311710 0.0002010642 0.0001096695 0.0000302504 0.0000921128 0.0000895313 0.0001572166 0.0000264646 0.0000114878 0.0001990556 0.0000539998 0.0000049321 0.0000488063 0.0001601211 0.0000605864 0.0000924889 0.0002208803 0.0000622837 0.0000401430 0.0000032811 0.0000493261 0.0002946528 0.0001548078 0.0000499705 0.0001520250 0.0000589197 0.0001000450 0.0001188232 0.0003256561 0.0000207754 0.0001206143 0.0000126461 0.0000314754 0.0000583114 0.0000051323 0.0000866286 0.0000177136 0.0000060024 0.0000092218 0.0000361963 0.0002063849 0.0000091799 0.0000228514 0.0002231354 0.0001371313 0.0000386329 0.0000957305 0.0000236891 0.0000060638 0.0000156443 0.0000161641 0.0000391845 0.0000101473 0.0000386955 0.0000307675 0.0000996129 0.0001220643 0.0000522224 0.0000064962 0.0000097192 0.0000289578 0.0000263428 0.0000839728 0.0000453455 0.0000530047 0.0000479141 0.0000603210 0.0000002672 0.0000793026 0.0000641098 0.0000990633 0.0000404599 0.0000568835 0.0000170691 0.0001111603 0.0000152881 0.0000238790 0.0001256819 0.0001393849 0.0001256200 0.0000762162 0.0001380729 0.0000205441 0.0000235970 0.0000397562 0.0000232242 0.0000611022 0.0000280707 0.0000109898 0.0000416148 0.0001061849 0.0000422395 0.0000132995 0.0000062133 0.0000414870 0.0000218271 0.0000026629 0.0000337904 0.0000424860 0.0000577297 0.0000152977 0.0000182167 0.0000075169 0.0000070835 0.0000246755 0.0000247920 0.0000273610 0.0000341776 0.0000056392 0.0001598342 0.0000063769 0.0000263208 0.0000007897 0.0000176208 0.0000300109 0.0001507423 0.0000307653 0.0000804440 0.0002041509 0.0000430315 0.0000459952 0.0001512962 0.0000379396 0.0002566083 0.0000101068 0.0000215823 0.0000181919 0.0000480750 0.0000050269 0.0000158080 0.0000092786 0.0000786753 0.0000393865 0.0000565157 0.0000605877 0.0000036091 0.0000358394 0.0000613536 0.0000010640 0.0000338915 0.0000586529 0.0000122798 0.0000200241 0.0000519618 0.0000195445 0.0000603778 0.0000320823 0.0000354198 0.0000241577 0.0000045619 0.0000282662 0.0000158215 0.0000178938 0.0000181598 0.0000040169 0.0000260079 0.0000080041 0.0000031148 0.0000608370 0.0000334227 0.0000023834 0.0000180318 0.0000369474 0.0000591470 0.0000646578 0.0000459340 0.0002364967 0.0000649220 0.0000012461 0.0000168514 0.0000004133 0.0000065030 0.0000035736 0.0000259092 0.0000048429 0.0000230217 0.0000521380 0.0000080939 0.0000864519 0.0000313088 0.0000611195 0.0001407147 0.0000081541 0.0000039605 0.0000031868 0.0000542481 0.0000923493 0.0000010622 0.0000239859 0.0000824037 0.0001177900 0.0003529632 0.0003216220 0.0000414315 0.0000237664 0.0001373333 0.0001648188 0.0000233608 0.0000523439 0.0000147742 0.0000565736 0.0000228061 0.0000240989 0.0000136101 0.0000315318 0.0000774956 0.0000549144 0.0000056216 0.0000300221 0.0000209388 0.0000149485 0.0000313632 0.0000198465 0.0000239076 0.0000269094 0.0000622696 0.0000040382 0.0000002944 0.0000162294 0.0000067978 0.0000059546 0.0000694990 0.0001999473 0.0000994085 0.0000689703 0.0000621960 0.0000255193 0.0000572642 0.0000927252 0.0000231449 0.0000382236 0.0000189199 0.0001337897 0.0000067069 0.0000208877 0.0000422115 0.0000100425 0.0000151831 0.0000070481 0.0000149701 0.0000697618 0.0000441375 0.0000108599 0.0000054160 0.0000071068 0.0000519537 0.0000595034 0.0000074463 0.0000214340 0.0000260061 0.0000084856 0.0000007232 0.0000123302 0.0000593208 0.0001175930 0.0000102620 0.0000222728 0.0000286447 0.0000075213 0.0000226646 0.0000226754 0.0000751159 0.0000753475 0.0000794125 0.0000075636 0.0000755336 0.0000000670 0.0000354949 0.0000170967 0.0000030944 0.0000070704 0.0000339823 0.0000307517 0.0000149421 0.0000310431 0.0000061342 0.0000130565 0.0000099765 0.0000223896 0.0000106487 0.0000521097 0.0000614191 0.0000133904 0.0000047785 0.0000124337 0.0000601479 0.0000910146 0.0000145880 0.0000088181 0.0000050395 0.0000512091 0.0000604862 0.0000355194 0.0000374204 0.0000599997 0.0000513946 0.0000143763 0.0000064143 0.0000037248 0.0000082211 0.0000100930 0.0000031360 0.0000085593 0.0000483042 0.0000182251 0.0000084639 0.0000278267 0.0000234269 0.0000027633 0.0000587378 0.0000440858 0.0000216172 0.0000222669 0.0000441914 0.0000123836 0.0000049613 0.0000321260 0.0000238904 0.0000083026 0.0000180898 0.0000376051 0.0000182770 0.0000143013 0.0000099407 0.0000044366 0.0000120705 0.0000032837 0.0000089960 0.0000156476 0.0000178834 0.0000107379 0.0000540122 0.0000093718 0.0000625555 0.0000283586 0.0000402932 0.0000183277 0.0000045741 0.0000027545 0.0000029077 0.0000011525 0.0000647439 0.0000094314 0.0000334567 0.0000122601 0.0000231122 0.0000142359 0.0000247954 0.0001337041
        </DataArray>
        <DataArray type="Float32" Name="contact normal" NumberOfComponents="3" format="ascii">