<?xml version="1.0"?>
<VTKFile type="UnstructuredGrid" version="0.1" byte_order="LittleEndian">
  <UnstructuredGrid>
    <FieldData>
      <DataArray type="Float32" Name="TIME"  NumberOfTuples="1" format="ascii"> 5.0000000000 </DataArray>
      <DataArray type="Int32"   Name="STEP"  NumberOfTuples="1" format="ascii"> 500000 </DataArray>
    </FieldData>
    <Piece NumberOfPoints="399" NumberOfCells="399">
      <Points>
        <DataArray type="Float32" NumberOfComponents="3" format="ascii">
 0.4248653070 0.2068253287 0.0759429213 0.5299832386 0.1286326582 0.0400907455 0.5050733290 0.1472906513 0.1825916831 0.6403307307 0.1082662135 0.1124597313 0.5396124182 0.3646966226 0.2040006491 0.5528625325 0.3591024091 0.2072265750 0.5678908450 0.4472843204 0.1939269243 0.7522014892 0.1787390296 0.1457377706 0.7585132657 0.1855915477 0.1501548212 0.6781370765 0.4551489258 0.1694659712 0.8496088245 0.2321591955 0.1150671992 0.7816290906 0.3733976859 0.0369726813 0.7953317280 0.3703147126 0.0373492126 0.8168259599 0.3857434950 0.0431750036 0.8042875542 0.3963506055 0.2240355805 0.8177013741 0.3880443096 0.2261940636 0.8970056324 0.3686629294 0.1723159080 0.7489578478 0.3245511598 0.6726893537 0.7715938790 0.2992914961 0.6582637479 0.7860264830 0.3638994092 0.5621520629 0.8677399612 0.6052376434 0.5111381279 0.9118155290 0.5556477503 0.5587196694 0.8933346976 0.6065768892 0.4947005029 0.9262233949 0.5446451056 0.5458335909 0.9417328784 0.3093609969 0.5254671143 0.9349241834 0.3343193588 0.5344038169 0.9466583641 0.4740607066 0.4508195390 0.2426831673 0.7997983895 0.0414070538 0.2550043004 0.8173393480 0.0914574894 0.0745409390 0.9091236804 0.1097903910 0.1543236965 0.7223195758 0.0815085768 0.0388482934 0.8885767945 0.1662305383 0.0554833857 0.8047839516 0.1553462321 0.0622455320 0.7985058583 0.1588805133 0.1716658665 0.7198411712 0.1453823279 0.1846704587 0.8263778172 0.1958309937 0.5696630477 0.7614161324 0.2455273153 0.6836961811 0.7584633144 0.2617671496 0.6518274857 0.7389198727 0.1620808183 0.7064502864 0.8129147091 0.2796416781 0.6573956895 0.7424563952 0.1621260908 0.6559154191 0.7439887919 0.1560628671 0.6050547969 0.8504649811 0.2446688342 0.6094916823 0.8548461031 0.2417823117 0.5207964757 0.7623145927 0.0984627416 0.7326510519 0.8581095335 0.2193670657 0.7273900258 0.8568456348 0.2066723925 0.5647766522 0.8549310862 0.1613300097 0.5655443237 0.8555398025 0.1539493357 0.1730878458 0.4807040950 0.3236705150 0.1676977858 0.4846859365 0.4415927138 0.1372092416 0.6603892491 0.2434471602 0.0843619899 0.6890418748 0.2636711932 0.1610016411 0.6613731016 0.2414228599 0.2576847510 0.4522146096 0.3447863983 0.2908208089 0.4616811081 0.4187216695 0.2909885574 0.5655094233 0.4523285861 0.3086335229 0.4589965889 0.2813319020 0.1182087079 0.7733039099 0.4080898362 0.2713209995 0.7854265264 0.2555509587 0.4240759056 0.5343444491 0.4164816859 0.4308566364 0.5455604746 0.4205663741 0.2460007347 0.8876088112 0.3715553476 0.3711234238 0.8402719119 0.4486933742 0.3884542062 0.8571711511 0.4473814758 0.4440474877 0.9114116417 0.2749312450 0.5616929896 0.7792377311 0.4616568837 0.7554637397 0.3393615988 0.5253680660 0.7491428512 0.3251158140 0.5221870127 0.7310388698 0.1923228064 0.5211123317 0.6605266109 0.0750019624 0.2089066357 0.6490921618 0.1078240685 0.2421729532 0.6082327112 0.1071849201 0.3161805385 0.5368084772 0.0942199594 0.3297716875 0.6497670500 0.8867021276 0.4452709762 0.6558284075 0.9007449934 0.3525090563 0.6572078249 0.9097056242 0.3464139571 0.7437354703 0.9446356591 0.5283422091 0.6975292782 0.9102989960 0.3310050899 0.7118969885 0.2412323995 0.2823340245 0.6923343020 0.1618251622 0.4376719500 0.7639626195 0.3793131503 0.3440297682 0.7707360856 0.3872254205 0.3523736960 0.5690856355 0.3189432372 0.3113890861 0.5335517352 0.2357773020 0.4478715852 0.4819230605 0.2672511055 0.3471241506 0.4709350512 0.3273643275 0.5039588254 0.4582439905 0.3355682606 0.5055504979 0.3861281942 0.4139790604 0.4441328047 0.5795576584 0.5972596313 0.5628794154 0.1272839440 0.2954922341 0.0794080748 0.1210211493 0.2920256832 0.0845417249 0.1781401679 0.3772360557 0.0528339493 0.1491837230 0.4388044435 0.0568122062 0.0950510010 0.4146554191 0.1045546842 0.2077568934 0.4386274091 0.0527657177 0.1964208263 0.4344285141 0.0567131114 0.2718643225 0.5419337960 0.0599525846 0.1116349691 0.4730196847 0.1348033650 0.1123437657 0.4827925134 0.1420337172 0.1047361502 0.4920112985 0.1450387983 0.0995440129 0.5073282716 0.1534457743 0.1196634320 0.6091644315 0.0768632541 0.1243073860 0.6141215217 0.0785439844 0.0731065677 0.6660886380 0.2039458053 0.0764847756 0.6738818391 0.1942222827 0.1368993584 0.3952855577 0.2410304562 0.2422135221 0.3041290803 0.2229845198 0.2365968896 0.2958151216 0.2228487192 0.2487071529 0.3044899269 0.2244120745 0.2293358292 0.2902092883 0.2219683424 0.2433834833 0.2948293972 0.2245375449 0.2197447825 0.2869283418 0.2202323086 0.2548635317 0.3066655570 0.2255148210 0.2368437095 0.2880812637 0.2239872289 0.2496216266 0.2953274769 0.2258878098 0.2609602702 0.3107896434 0.2263361312 0.2673069488 0.3172671299 0.2268947335 0.2743128685 0.3269066324 0.2271856377 0.0603282972 0.3238590630 0.2405525395 0.2818535196 0.3248941313 0.2291695501 0.2734197171 0.3270487918 0.3139746612 0.2819441004 0.3344277076 0.3145357186 0.0744064018 0.2508624277 0.2704873990 0.0724369116 0.1488439737 0.2300771231 0.1130169435 0.0685981766 0.2994128303 0.1289111434 0.0610858232 0.3107434176 0.2422537194 0.1318700975 0.3407274567 0.2508582484 0.1370574673 0.3419973879 0.2667441094 0.1556162423 0.3433603220 0.2741732384 0.1652456659 0.3438922106 0.2824443678 0.1696901654 0.3451598880 0.8679175732 0.1866464524 0.4388064887 0.8336802885 0.1057841345 0.4125786361 0.7587822238 0.1533913934 0.5977293316 0.7548276691 0.1422546019 0.5935162595 0.7470130105 0.1331152481 0.5912830753 0.2973190743 0.2801239170 0.5031616045 0.2898208436 0.2700269976 0.4140875613 0.2535001466 0.3450425655 0.3698633942 0.3102817892 0.3803418564 0.4286201144 0.6312890379 0.7388031880 0.5144385200 0.6934333248 0.6467630335 0.3835487938 0.7179965872 0.8411236272 0.5228719220 0.7601123867 0.7119197712 0.4431576601 0.7150677921 0.7763954579 0.3773378161 0.7224916891 0.7765643259 0.3764743309 0.7217487008 0.7830362659 0.3798925511 0.5481883061 0.5178811852 0.2034166145 0.6016772496 0.5231819367 0.2544421675 0.6024651376 0.5427590080 0.2596856782 0.6200439501 0.5473505523 0.0836204949 0.6262681935 0.5623856049 0.0836988653 0.6399071376 0.5592327050 0.0832588988 0.7413569203 0.6640249267 0.2510472407 0.8187177912 0.4748238919 0.2427189490 0.8265620145 0.4850383349 0.2453614634 0.7524096204 0.6663460471 0.2524261455 0.8342696777 0.4949642220 0.2478054056 0.7588458710 0.7526340808 0.1137498844 0.7644308845 0.6690105670 0.2538323105 0.7782261476 0.6723033816 0.2552957750 0.8026219739 0.7665642712 0.1615339643 0.8794313896 0.6238430885 0.0942663476 0.9217433223 0.5592536065 0.1912944872 0.8981107150 0.6354672699 0.0942527964 0.9265943779 0.6781196376 0.2684890308 0.9125153941 0.7262492872 0.2334569276 0.9396908904 0.6711485913 0.2630040226 0.3658526308 0.5765588092 0.0833475850 0.4803350505 0.7324424155 0.0279601487 0.4430330000 0.6659638783 0.0961071243 0.4495917618 0.6639639783 0.0952667012 0.4523357780 0.6598792172 0.0965932035 0.3894148558 0.1711525779 0.4216737958 0.3343303064 0.0835969180 0.4717569615 0.1711626603 0.1840701766 0.3885515069 0.2163982993 0.1306972692 0.4587595299 0.1403167955 0.0872426604 0.4244188707 0.9285704313 0.4500576201 0.5810541617 0.2542665292 0.1549634951 0.0768234466 0.2905348329 0.1241725296 0.1289599692 0.3212507743 0.0796913150 0.1134321471 0.3626135342 0.1664949231 0.0989906458 0.3618115664 0.1720328753 0.1001070799 0.3650572402 0.1699175397 0.1024748438 0.3680818568 0.1736261879 0.1065972298 0.3291200059 0.2036819975 0.1572353032 0.3370100916 0.2091292018 0.1616357330 0.0617467327 0.1503420789 0.5057999687 0.1851545087 0.1663335344 0.5386190522 0.1499010621 0.2658903073 0.5712994271 0.1483449194 0.2522240620 0.4787908304 0.0408594591 0.9382737204 0.1632798198 0.1579121855 0.9508840718 0.1726203305 0.1685812701 0.9468864595 0.1683302052 0.4623076623 0.4848410709 0.1661080759 0.4577480782 0.4752231411 0.1662387358 0.5258204966 0.3954501679 0.2669790813 0.8807305513 0.5610004809 0.0484159350 0.8724848562 0.5657489592 0.0455652816 0.8788722018 0.5639570410 0.0436099528 0.9528858914 0.5564838280 0.0824624048 0.0848624673 0.9509147674 0.2972595184 0.0909316759 0.9527345674 0.2984105315 0.1709233018 0.9291513130 0.3642659033 0.7712013010 0.0774325282 0.2849991269 0.7320444969 0.0975391156 0.3049635417 0.7245536081 0.0995461398 0.3031240055 0.8351613059 0.1252679095 0.3223785219 0.8416794590 0.1387116043 0.3278999401 0.7707172544 0.1908859456 0.2038468660 0.7747344235 0.1947189534 0.2066773711 0.3426281811 0.1902178804 0.5344582394 0.3550234432 0.1906347654 0.5362019390 0.4140002972 0.2829446789 0.5664141552 0.9549015096 0.6061794946 0.3610205809 0.8663833872 0.6117986376 0.4001128365 0.8999174389 0.4790676828 0.3659222804 0.9022704233 0.4738060923 0.3628362926 0.8960226969 0.4718838440 0.3635568761 0.9027217395 0.3807538760 0.2926232942 0.8058040761 0.0773923008 0.5900189895 0.3432513864 0.9113997111 0.0686959029 0.3482567264 0.9041869274 0.0728549004 0.2973776063 0.8399042316 0.0897858017 0.2988440330 0.8343472533 0.0890977115 0.8006526059 0.6605804305 0.3595347187 0.6844027743 0.6155008579 0.3399599217 0.6751678354 0.6201204357 0.3384223462 0.1505754613 0.9040896957 0.4534406153 0.1568608472 0.9069186616 0.4543829668 0.1183442766 0.9135208420 0.2299883552 0.1206155468 0.9131855294 0.2376249420 0.2538574798 0.3186006790 0.1147665866 0.2556202655 0.3240390313 0.1154067847 0.2607363022 0.3190392121 0.1151261785 0.2621689242 0.3245774001 0.1156874416 0.2673284879 0.3190366136 0.1154433912 0.2631778878 0.3301135689 0.1161662490 0.2685364363 0.3247192036 0.1158619712 0.3468121071 0.2670682205 0.0577854172 0.2798046594 0.4118686381 0.0597693928 0.1971449343 0.4195477567
[...]
      <PointData Scalars="overlap">
        <DataArray type="Float32" Name="overlap" format="ascii">
 0.0002253843 0.0000175560 0.0002058292 0.0000271892 0.0000865763 0.0000332766 0.0000068373 0.0000516977 0.0002478990 0.0002507859 0.0001091291 0.0000486175 0.0000729012 0.0004923262 0.0000270111 0.0002311960 0.0000930778 0.0000060656 0.0000060878 0.0001282830 0.0000225362 0.0000491298 0.0000314513 0.0000304877 0.0000236395 0.0000097355 0.0001206793 0.0000834158 0.0001926752 0.0001201366 0.0000299732 0.0000288452 0.0000077058 0.0000869365 0.0002829924 0.0000289572 0.0001993655 0.0000835053 0.0000472717 0.0000984398 0.0001042791 0.0001687571 0.0000242302 0.0000127964 0.0001830855 0.0000524113 0.0000014207 0.0000530315 0.0001661983 0.0000601364 0.0000791263 0.0002214499 0.0000634737 0.0000341287 0.0000158373 0.0000084662 0.0000554071 0.0002888988 0.0001529808 0.0000509730 0.0001171287 0.0000166815 0.0000949008 0.0000953116 0.0000261551 0.0003201808 0.0000193701 0.0000905858 0.0000909199 0.0000192345 0.0000291671 0.0000606810 0.0000072068 0.0000864500 0.0000182271 0.0000016451 0.0000080714 0.0000088774 0.0000386382 0.0001858574 0.0000087664 0.0000307433 0.0002617967 0.0001147151 0.0000375492 0.0001252654 0.0000100146 0.0000137049 0.0000041169 0.0000157604 0.0000165961 0.0000396868 0.0000069945 0.0000394105 0.0000272086 0.0001011323 0.0001228701 0.0000460789 0.0000056060 0.0000080692 0.0000275584 0.0000244928 0.0000820318 0.0000443246 0.0000529920 0.0000486272 0.0000602620 0.0000762240 0.0000621878 0.0000974221 0.0000384919 0.0000568995 0.0000138067 0.0001103410 0.0000157846 0.0000254054 0.0001250799 0.0001383435 0.0001233457 0.0000799857 0.0001382302 0.0000156694 0.0000302292 0.0000372064 0.0000324808 0.0000592052 0.0000283300 0.0000085657 0.0000406178 0.0001086513 0.0000464273 0.0000187065 0.0000024212 0.0000395983 0.0000015909 0.0000123645 0.0000048970 0.0000334904 0.0000390352 0.0000605058 0.0000185415 0.0000168627 0.0000082606 0.0000067717 0.0000118925 0.0000223502 0.0000203822 0.0000127289 0.0000104139 0.0000259259 0.0000088815 0.0001699561 0.0000140402 0.0000454520 0.0000110990 0.0000460926 0.0001709665 0.0000240971 0.0001046323 0.0002023960 0.0000361832 0.0000389066 0.0001535366 0.0000029060 0.0000398630 0.0002876265 0.0000076120 0.0000179778 0.0000144541 0.0000431290 0.0000044775 0.0000130020 0.0000079720 0.0000747720 0.0000377333 0.0000593891 0.0000611671 0.0000358994 0.0000601788 0.0000172900 0.0000352028 0.0000001774 0.0000570053 0.0000125445 0.0000175766 0.0000518711 0.0000191204 0.0000528899 0.0000302977 0.0000300091 0.0000204937 0.0000077855 0.0000284838 0.0000113773 0.0000228878 0.0000145798 0.0000044749 0.0000259756 0.0000158231 0.0000056551 0.0000674562 0.0000368585 0.0000020721 0.0000127829 0.0000077717 0.0000003966 0.0000400608 0.0000106496 0.0000493738 0.0000639437 0.0000374010 0.0002481813 0.0000716320 0.0000078729 0.0000103974 0.0000073164 0.0000071240 0.0000118404 0.0000365639 0.0000337856 0.0000538180 0.0000648483 0.0000026879 0.0000081376 0.0000882146 0.0000310418 0.0000607778 0.0000854166 0.0000025873 0.0000074789 0.0000560678 0.0000902304 0.0000005388 0.0000288515 0.0000796708 0.0001169612 0.0003506889 0.0003213980 0.0000396165 0.0000253879 0.0001375471 0.0001623204 0.0000229101 0.0000387959 0.0000069803 0.0000151721 0.0000602886 0.0000176394 0.0000221358 0.0000122437 0.0000312239 0.0000745144 0.0000535279 0.0000058212 0.0000331635 0.0000231332 0.0000207931 0.0000334425 0.0000189503 0.0000231723 0.0000276329 0.0000619656 0.0000031172 0.0000056644 0.0000215718 0.0000014782 0.0000081129 0.0000690030 0.0002010547 0.0001003766 0.0000704928 0.0000618091 0.0000254565 0.0000531507 0.0000845322 0.0000197666 0.0000509342 0.0000228215 0.0001329377 0.0000052857 0.0000218563 0.0000399036 0.0000060851 0.0000133631 0.0000073153 0.0000121746 0.0000692907 0.0000460459 0.0000085649 0.0000062323 0.0000203567 0.0000510070 0.0000424149 0.0000045551 0.0000223375 0.0000264511 0.0000096420 0.0000018721 0.0000134251 0.0000581680 0.0001162920 0.0000070253 0.0000207955 0.0000300599 0.0000081798 0.0000234492 0.0000218748 0.0000728297 0.0000745346 0.0000794650 0.0000091052 0.0000792436 0.0000033967 0.0000339820 0.0000164439 0.0000034134 0.0000091102 0.0000222778 0.0000323677 0.0000314645 0.0000290258 0.0000209588 0.0000060449 0.0000219938 0.0000136821 0.0000218681 0.0000040507 0.0000588722 0.0000081041 0.0000052586 0.0000114745 0.0000607401 0.0000875089 0.0000141647 0.0000075100 0.0000050992 0.0000504111 0.0000601873 0.0000344155 0.0000376106 0.0000593783 0.0000512440 0.0000146494 0.0000059452 0.0000104281 0.0000044635 0.0000065115 0.0000085519 0.0000098217 0.0000055193 0.0000459256 0.0000166855 0.0000076859 0.0000326611 0.0000233959 0.0000007718 0.0000054173 0.0000594937 0.0000461233 0.0000197874 0.0000226662 0.0000419151 0.0000146785 0.0000079726 0.0000069470 0.0000336038 0.0000269827 0.0000105908 0.0000221164 0.0000404201 0.0000195045 0.0000138376 0.0000139626 0.0000066194 0.0000152027 0.0000080410 0.0000100826 0.0000156679 0.0000150560 0.0000046111 0.0000049512 0.0000517229 0.0000115785 0.0000606063 0.0000295810 0.0000317257 0.0000091053 0.0000185488 0.0000045777 0.0000027540 0.0000039317 0.0000651003 0.0000061095 0.0000313488 0.0000109942 0.0000235979 0.0000131429 0.0000245510 0.0001356989
        </DataArray>
        <DataArray type="Float32" Name="contact normal" NumberOfComponents="3" format="ascii">
 0.9747546951 -0.1893179956 -0.1183722135 0.1555813867 0.9312605525 0.3294665621 -0.0006371430 0.6164460656 -0.7873968772 -0.2103086969 0.7157930553 -0.6658907973 0.1103587433 -0.0480260907 -0.9927308006 0.2338365652 -0.1107080098 -0.9659524819 0.5992094862 -0.7720034848 -0.2120344573 -0.3785358607 0.6351393553 -0.6732819629 -0.3288784741 0.6782703464 -0.6571059933 -0.1641724965 -0.9501197186 -0.2651790184 -0.8558114037 0.4668472153 0.2228015236 -0.1400020348 -0.4491040022 0.8824426471 -0.1479979210 -0.4748791225 0.8675173972 -0.1169568145 -0.3830518026 0.9162927589 -0.0083256114 0.0626834572 -0.9979987317 0.0267989463 -0.0943942578 -0.9951741258 -0.8319759365 -0.0603931829 0.5515149177 -0.4684018547 0.3948278419 -0.7903864104 -0.3784747506 -0.4904568991 -0.7849897409 0.4266715941 -0.1496771785 0.8919350274 0.4063640792 -0.1798429023 0.8958374661 -0.6620698279 -0.1481330162 -0.7346564861 0.5876589317 -0.7239402659 0.3613412117 -0.6340839064 -0.2069757144 -0.7450494301 -0.0676126259 -0.3232713571 -0.9438877912 -0.7624904225 0.1937221289 -0.6173168492 0.3124888392 -0.0294219051 0.9494656797 -0.7342349061 -0.5295602167 0.4248118166 -0.7988514466 -0.6010965127 0.0227892217 -0.0013708029 -0.9554462959 0.2951618141 0.3770205546 0.7929116325 0.4786926410 0.3335730165 -0.6196486378 -0.7104678799 0.7209794801 0.5217125527 -0.4560752149 0.7537172589 0.4852906087 -0.4431741404 0.2852114486 0.6836276098 -0.6717944036 -0.4732846561 -0.4351846481 -0.7659085823 0.2186540572 -0.1884254152 -0.9574373432 -0.6235804738 0.7261394388 -0.2896012916 -0.5201701646 0.6631037422 0.5382531254 -0.1223044825 -0.0632356761 -0.9904760789 -0.3277454349 0.7301530489 0.5995493768 -0.7229385010 0.6861785669 0.0807396935 0.4062241243 -0.7683083616 -0.4946556604 0.4403001522 -0.7260646366 -0.5281722441 0.1714107765 0.2531728529 0.9521144113 -0.4363232303 -0.6609543830 0.6105418432 -0.9456345854 -0.3248605540 -0.0155193878 0.6139380969 -0.7892935755 0.0097808418 0.5989296201 -0.8008014990 0.0005189766 0.5472196337 0.8316365462 0.0945057010 0.4998126098 0.7781950795 -0.3802627688 0.0644273990 -0.3623463633 0.9298140799 0.7572564675 -0.0105237816 0.6530328418 0.1054407921 0.2946047796 0.9497843246 -0.1808987200 0.8143213702 -0.5515037254 -0.1033733093 0.6607669809 -0.7434386026 -0.0957021153 0.2005421150 -0.9749994694 -0.2508207886 0.5934714379 0.7647748586 0.4793073568 -0.4879248001 -0.7295161734 0.2611694178 -0.8734893139 0.4108612342 -0.4050210017 0.2950858141 -0.8653798880 -0.5610625254 0.6174393878 -0.5513414957 0.6796908940 -0.6364765589 -0.3645790430 0.1152679934 -0.2602634661 -0.9586324728 0.2785744557 -0.2555722939 -0.9257856530 -0.1151275795 -0.6947411389 0.7099861903 -0.1319869562 -0.1364115178 -0.9818204221 0.1889894344 -0.3259872453 0.9262911581 0.1771351282 -0.3355317409 0.9252251603 -0.3539136026 0.6917205535 -0.6294980840 -0.5815551938 -0.3308899359 0.7431725283 -0.6850141472 -0.6446768302 0.3393337629 -0.3519570987 0.0410005145 -0.9351177244 0.2481352240 0.1400622149 -0.9585465490 0.6234721391 0.3239816120 -0.7115605433 0.9444703273 -0.0566731481 0.3236726049 0.9482896370 0.0855579095 0.3056576656 -0.4734689989 0.6020893803 -0.6428961699 -0.5584178093 0.4656556235 0.6865379746 -0.4312471698 0.6832492333 0.5892337089 0.1343175928 0.8425388410 -0.5216196753 -0.6365648678 -0.7535009857 0.1643819749 0.0926933852 -0.3335351268 0.9381696305 0.0489955149 -0.2190320238 0.9744867429 0.3163049408 0.5396056842 -0.7802415588 0.7737788183 0.4542853221 0.4414648190 0.3336617700 0.5760535695 -0.7462118387 0.2731842454 0.6214730403 -0.7342626425 0.8864811102 0.4479898716 -0.1160013629 -0.3028733299 -0.8435956113 -0.4434119874 -0.2974542793 0.9482578067 0.1110319042 -0.3437144826 0.8246715649 0.4491961314 -0.8803500939 -0.1147574262 -0.4602330337 -0.2751907321 -0.8528880136 -0.4436801745 -0.0722202152 -0.8079357261 -0.5848282679 -0.2014304345 0.9574076262 0.2068729498 -0.5934955351 0.7299751549 0.3389680267 -0.3922063518 -0.5327746749 0.7498835399 0.3396708354 0.5385645749 -0.7710848995 0.3862974238 0.5406376038 -0.7473187283 0.3396560650 0.5385636932 -0.7710920216 0.3396520892 0.5385634558 -0.7710939388 0.1126265252 -0.4601048222 0.8806922382 0.1108335753 -0.4528083455 0.8846923312 -0.0838019676 -0.9413534062 -0.3268501107 0.7067000465 -0.6148229490 -0.3500968232 0.4599520741 -0.3548448589 -0.8139589766 -0.2235093995 0.1352046130 0.9652788514 -0.2231824005 0.1347990597 0.9654112231 -0.2230428573 0.1346263916 0.9654675647 -0.2232294074 0.1348573513 0.9653922138 -0.2225780937 0.1340496894 0.9656550486 -0.2236700899 0.1354039144 0.9652136918 -0.2227711013 0.1342893320 0.9655772428 -0.2224681225 0.1339133318 0.9656993083 -0.1802105874 0.0818526978 0.9802164455 -0.2226766489 0.1341832294 0.9656137794 -0.2226614044 0.1344163795 0.9655848673 -0.2230747059 0.1349957539 0.9654086296 0.1669264719 -0.3145201422 -0.9344584705 -0.2215205801 0.1354755518 0.9656992324 0.2534596165 -0.2169847061 -0.9426960593 0.2505247747 -0.2101634250 -0.9450231066 0.4823451484 -0.3851712883 -0.7867567836 0.7374708388 0.4353345268 0.5163531850 0.4636686775 0.3371323868 -0.8193614045 0.8230614004 -0.5670124815 -0.0326615524 0.2197711715 -0.1326057428 -0.9664969473 0.2253260979 -0.1300564262 -0.9655638123 0.2248727933 -0.1264230962 -0.9661518657 0.2037508242 -0.0979220769 -0.9741133756 0.2245775791 -0.1254504242 -0.9663472989 0.1756601075 -0.7374327548 0.6521782416 0.1958905039 0.1959950454 0.9608396602 -0.0155846241 0.4234294884 -0.9057950032 -0.0707399822 0.3607674326 -0.9299692008 -0.1004609711 0.3256043822 -0.9401539127 -0.0743192667 0.1549467418 -0.9851234206 -0.3376698827 0.8585544093 0.3858281699 0.1560693455 -0.5231875286 0.8378049710 -0.3066380118 -0.9367083931 -0.1689689794 0.9259152595 0.1042805358 -0.3630516520 0.5340538251 0.5979778105 0.5976696831 -0.6750268674 -0.6277471865 -0.3876495818 -0.9195278879 0.3290545712 -0.2149222012 0.0689834631 -0.6885769260 0.7218747113 0.0714482060 -0.6715856587 0.7374739703 0.0633566558 -0.3691976200 0.9271887896 0.4348742867 0.8794798049 -0.1933898334 -0.3197016908 -0.5168079238 -0.7941664805 0.2726947018 0.5234763162 -0.8072237274 -0.0187459845 0.0079262161 0.9997928601 -0.0187558891 0.0079564833 0.9997924340 0.0753940192 -0.0381801281 0.9964226110 0.2195172279 -0.5921851732 -0.7753250333 -0.1204671232 0.3287115041 -0.9367157623 -0.1204803072 0.3287223702 -0.9367102534 0.2194886784 -0.5919972216 -0.7754766339 -0.1204919758 0.3287319870 -0.9367053776 0.1357689689 -0.0261314357 0.9903958477 0.2192783133 -0.5917311390 -0.7757391833 0.2181279807 -0.5917921894 -0.7760168739 -0.3180887242 -0.8153383612 0.4837798262 -0.2059563192 0.1752075786 0.9627483051 -0.8647643457 0.4792074867 -0.1501426360 -0.0545652142 0.3320573788 0.9416796348 -0.6879631678 0.4288483504 -0.5854876361 -0.0387516710 -0.7615554553 -0.6469401800 0.1346785206 -0.2781187234 -0.9510581853 0.6640589885 0.3246321068 -0.6735277686 -0.2386569898 -0.2963294418 0.9247873826 -0.1922994695 -0.3520439986 -0.9160163411 -0.1771605087 -0.3510699085 -0.9194368241 -0.1801641338 -0.3565779133 -0.9167295548 -0.8774161987 0.4309656474 0.2107354383 -0.5001268928 0.4190727470 -0.7577935892 0.5889334589 -0.5446859564 -0.5970549304 0.2174230106 -0.1597156199 -0.9629216766 0.9732606672 0.2296995387 0.0013399897 -0.6193092009 0.5275576364 -0.5814972518 0.9097918653 -0.4077834795 0.0774041068 0.6530788974 0.0527714018 -0.7554489612 0.1091309436 0.9771378995 0.1824608521 -0.6847312716 -0.2364508681 0.6893722308 -0.6894311340 -0.2314204237 0.6863885918 -0.6822148510 -0.2397764070 0.6907171431 -0.6643664296 -0.2351641400 0.7094470202 0.4877497113 -0.4803089118 -0.7289743262 0.7528386305 -0.6492574015 -0.1081610974 0.0332309249 0.4261986853 0.9040190188 -0.6546767367 0.4063497303 0.6373996133 -0.0726004336 -0.4846432958 -0.8716937839 -0.5033503321 -0.6987148685 0.5083659861 0.3390185781 0.2884320963 -0.8954738017 -0.2373882183 0.0128338264 -0.9713300812 -0.2615763778 -0.0587896873 -0.9633906639 0.7522897317 0.2694475381 0.6012139252 0.1439942342 -0.6094769137 0.7796175679 -0.4401183666 0.8365786701 0.3262391027 0.2696938804 0.7976547425 0.5394553945 0.2716257789 0.8386195522 0.4721617127 0.2090922525 0.6355673169 -0.7431921795 -0.3845843040 0.7536660983 -0.5329937385 -0.2919801512 0.6684356621 0.6840623926 -0.2518938396 0.6666747613 0.7014943023 -0.8247878288 0.4462054547 0.3473121500 -0.1772994766 0.9573732151 0.2280382041 0.3002282818 0.5922475474 -0.7477337905 0.2806569313 0.5827398330 -0.7626571798 -0.2984490919 0.4463291638 -0.8436340540 -0.3000510621 0.4872079803 -0.8201205668 -0.1923636727 -0.5414390446 0.8184375226 -0.1957672897 -0.5312670265 0.8242757517 -0.4403168293 0.6284679873 -0.6412090757 0.0843750603 0.9896467014 0.1161045026 -0.6559080062 -0.6631172999 0.3606385086 -0.6477328914 -0.7391414407 -0.1846944289 0.6216372728 -0.6940135137 -0.3631973896 -0.4377182553 0.6553941742 -0.6155170229 -0.1216736030 0.3523845305 -0.9279119985 -0.2329698781 0.2568556076 -0.9379500161 -0.4786255314 0.7628193895 -0.4347691107 -0.1736945412 0.6567007476 0.7338762392 -0.7734268076 -0.6004205444 -0.2032391279 -0.7640801798 -0.6230859137 -0.1671688459 0.2986759480 0.2188553418 -0.9289214270 0.2974132414 0.2166324658 -0.9298471587 -0.2439396182 0.3579278895 -0.9013218563 0.3978202346 0.4542115938 -0.7971391905 0.3423542045 0.4963691301 -0.7977539002 -0.3679616266 0.7958063930 0.4809328707 -0.3649432526 0.8040856345 0.4693215473 -0.8854925095 0.3731739571 0.2768469131 -0.8869881196 0.3678068626 0.2792314229 0.0322061190 0.0956234901 -0.9948964338 0.0299061851 0.0983251021 -0.9947048780 0.0681958566 0.0531640568 -0.9962544395 0.0336727549 0.0939389888 -0.9950083477 0.0706264239 0.0502729559 -0.9962351821 0.0315023740 0.0964962964 -0.9948346924 0.0697348636 0.0513362502 -0.9962437645 -0.9735271266 0.2172864837 0.0709331924 -0.4238684182 -0.7489805819 -0.5092775785 0.4890321370 -0.6031935507 0.6300834146 0.0011444227 0.0684584809 -0.9976533099 0.1759350757 -0.2961199443 -0.9388076628 0.5084286816 -0.3526574693 -0.7855781216 0.1803345833 -0.9835924913 -0.0050248467 0.9711449673 -0.0971724009 -0.2177957229 -0.2651231298 -0.9614104118 0.0734829648 -0.2908659495 -0.5680924960 0.7698492809 0.6003620343 -0.1235779317 -0.7901227263 0.4877580785 0.4212431340 0.7646216574 -0.0679972188 -0.9155812574 -0.3963424521 -0.1218850854 0.3804027076 -0.9167539506 0.3198477182 -0.2090801211 0.9241119738 -0.6040764231 -0.0347653557 -0.7961677242 -0.2391591594 -0.6359418980 0.7337443689 -0.2315484587 -0.6370178659 0.7352506714 0.8045617640 -0.5925205266 0.0399974171 0.5654771315 -0.0073161547 0.8247315246 0.0996575460 0.7560970648 0.6468273356 -0.1534831088 0.6421890150 -0.7510234380 0.7465868723 0.1815148370 -0.6400471905 0.1414880077 -0.5278161559 -0.8374910443 -0.6001529594 -0.5560342465 -0.5750150799 -0.2655321479 0.5367706049 -0.8008557898 -0.8479742231 -0.3158350382 -0.4256617738 -0.7710791304 -0.1248553047 -0.6243781927 0.3590311868 0.2544344388 -0.8979753467 0.3518000440 0.2536809779 -0.9010453321 0.3589461141 0.2544595561 -0.8980022391 0.4646800908 -0.0593460243 0.8834876697 -0.0936990221 -0.1858358516 -0.9781030260 -0.0848792009 -0.1981161000 -0.9764965602 -0.1139103420 -0.6161849436 -0.7793205690 0.0886017886 0.1653658226 0.9822443015 0.7157433344 -0.2994487649 -0.6309056319 0.8781595799 0.0218759302 0.4778673414 0.4081733198 0.9091426174 -0.0827903518 0.9198017837 -0.1472190577 -0.3637186107 0.4277910350 0.5480267589 -0.7187916958 0.4394562643 0.5374415634 -0.7197463148 -0.0485459706 -0.6506540387 0.7578209621 -0.0481442366 -0.6506587807 0.7578425190 -0.0497867290 -0.6508242377 0.7575942801 -0.0495888120 -0.6508277587 0.7576042359 -0.0496810094 -0.6508526469 0.7575768141 0.3639469593 -0.0156332010 -0.9312884697 0.9432761587 0.2503078033 -0.2181194442 -0.4285894963 0.5268855436 0.7339636691 -0.4289805245 0.5264599038 0.7340406523 -0.4345438758 0.5250564730 0.7317699913 -0.7262302752 0.3025723633 0.6172840127 -0.0362809144 0.2405683643 -0.9699538944 0.0041106863 0.2892680220 -0.9572393189 0.0163338371 0.3096371318 -0.9507144957 0.2013692063 0.3973521125 -0.8952998053 0.1078150656 0.8494461421 -0.5165434766 -0.3693012695 -0.1432360659 -0.9182047712 -0.2699996730 0.0784241951 -0.9596613060 -0.3530756568 -0.2886903213 0.8899412784 -0.3215950668 -0.9253118764 -0.2009341795 0.2932613422 -0.5837346055 -0.7571338690 -0.0298840171 -0.6451764413 -0.7634489538 0.2668496158 0.3719945847 -0.8890507924 0.3191411038 0.1144428538 -0.9407719113 -0.3964330091 0.0135305542 -0.9179639390 -0.3971823887 0.0123227911 -0.9176569615 -0.3732264360 0.0502517666 -0.9263783177 -0.3734439760 0.0499603778 -0.9263064058 0.1842507512 -0.3894802866 0.9024171801 -0.2693818423 0.0358320646 -0.9623666070 -0.2120003756 0.0192414869 -0.9770801430 -0.0860933751 -0.1622265521 0.9829905781 0.6306356679 -0.6960354153 -0.3432686339 0.6343649673 -0.6933794925 -0.3417688803 -0.2452332997 0.8945694583 -0.3736390143 -0.4035334092 0.9128048261 0.0628342032 -0.5502995448 -0.7400335502 0.3866791377 0.1735310904 0.3615624933 -0.9160565071 0.1744386625 0.3463886444 -0.9217299280 0.3688306873 -0.7351873741 -0.5687384716 -0.4895730790 -0.5444958582 -0.6810598070 0.0874890767 0.4826730789 0.8714197383 0.0729883042 0.4577566928 0.8860764739 0.2545717190 0.7718900180 -0.5825624773 0.2177898355 0.8018534889 -0.5564158246 -0.1614298707 -0.9838705314 0.0770660385 -0.0928280753 0.9011135784 0.4235295353 -0.4452245078 -0.8639958488 -0.2351304124 0.7007706045 -0.1018105415 0.7060843954 0.7780996393 -0.0149296623 0.6279634197 -0.1273574617 -0.6337180790 0.7630081739 -0.1228450206 -0.6298747229 0.7669204224 -0.1273262086 -0.6337431218 0.7629925898 -0.1228148096 -0.6299740949 0.7668436362 -0.1228718316 -0.6300219991 0.7667951445 -0.0929707559 -0.6040536817 0.7915021088 -0.1219697140 -0.6310547102 0.7660896433 -0.0935129041 -0.6037201047 0.7916927257 -0.0933914799 -0.6036246349 0.7917798505 -0.0310390234 0.6017022291 0.7981171634 0.5127490772 0.8092084587 -0.2868275688 0.9208304736 0.2509968963 0.2984489855 -0.0789262835 0.2649750787 -0.9610196925 -0.0744926076 0.2682389514 -0.9604679674 -0.0701691586 0.2713483874 -0.9599199664 0.3275235110 0.4936413220 -0.8056342811 0.6858785464 0.7189603668 0.1125460379 -0.1523929856 -0.6449735335 0.7488561404 -0.1524411220 -0.6449515109 0.7488653103 -0.1524545847 -0.6449491675 0.7488645878 -0.1524064826 -0.6449546854 0.7488696267 -0.1524371176 -0.6449511792 0.7488664111 -0.1524570875 -0.6449488577 0.7488643452 -0.1524538365 -0.6449492321 0.7488646845 -0.1523873256 -0.6449568913 0.7488716254 -0.1524023577 -0.6449551604 0.7488700572 0.0626421830 0.755246237