<?xml version="1.0"?>
<VTKFile type="UnstructuredGrid" version="0.1" byte_order="LittleEndian">
  <UnstructuredGrid>
    <FieldData>
      <DataArray type="Float32" Name="TIME"  NumberOfTuples="1" format="ascii"> 0.3500000000 </DataArray>
      <DataArray type="Int32"   Name="STEP"  NumberOfTuples="1" format="ascii"> 35000 </DataArray>
    </FieldData>
    <Piece NumberOfPoints="8" NumberOfCells="8">
      <Points>
        <DataArray type="Float32" NumberOfComponents="3" format="ascii">
 0.7746543626 0.6940259462 0.1471642930 0.7796617896 0.6958278551 0.1453470069 0.1720848631 0.6141641185 0.0630507783 0.1628208171 0.6213364065 0.0562353933 0.7850371902 0.2665938981 0.1159024527 0.1065871831 0.2470542750 0.1948279833 0.1166974594 0.2492664770 0.1908393126 0.1158724706 0.2406983773 0.1936470372
        </DataArray>
      </Points>
      <Cells>
        <DataArray type="Int32" Name="connectivity" format="ascii">
 0 1 2 3 4 5 6 7
        </DataArray>
        <DataArray type="Int32" Name="offsets" format="ascii">
 1 2 3 4 5 6 7 8
        </DataArray>
        <DataArray type="UInt8" Name="types" format="ascii">
 1 1 1 1 1 1 1 1
        </DataArray>
      </Cells>
      <PointData Scalars="overlap">
        <DataArray type="Float32" Name="overlap" format="ascii">
 0.0004777018 0.0013343326 0.0001497894 0.0009588888 0.0022174099 0.0005133487 0.0011657795 0.0011920577
        </DataArray>
        <DataArray type="Float32" Name="contact normal" NumberOfComponents="3" format="ascii">
 0.3273295954 -0.7638742337 0.5561937533 0.4641536618 -0.8854015116 0.0250108288 0.5506912121 0.8209325514 0.1510262724 0.5391321281 0.8392624746 0.0705340146 -0.9377959227 0.3062670503 0.1635215624 -0.3725944964 -0.2037327858 -0.9053542363 -0.3080004790 -0.0806411309 -0.9479624006 0.1813184039 -0.5077019908 -0.8422365018
        </DataArray>
        <DataArray type="Float32" Name="contact force" NumberOfComponents="3" format="ascii">
 36.4226005282 -144.4738613814 295.4708186960 255.4005824132 -757.2124997847 464.4927067828 54.1157113765 61.4515033721 63.7309068309 356.7840972272 425.7155497809 364.2554176288 -1341.3511722849 -83.3198265809 599.6176889319 32.3989277064 2.5513883031 -354.1162905879 45.1546268394 45.6312318750 -756.4172119805 308.1669223723 -157.7062721347 -687.8003041689
        </DataArray>
        <DataArray type="Float32" Name="sliding spring" NumberOfComponents="3" format="ascii">
 0.0003188720 -0.0004137144 -0.0007558554 0.0006455591 0.0002686691 -0.0024692725 -0.0000256839 0.0000684927 -0.0002786535 -0.0002589081 0.0003174448 -0.0017981936 0.0005203576 0.0027266199 -0.0021225616 -0.0008175637 -0.0003627942 0.0004181047 -0.0014477278 -0.0005668728 0.0005186009 -0.0009915651 -0.0011412210 0.0004744643
        </DataArray>
      </PointData>
    </Piece>
  </UnstructuredGrid>
</VTKFile>
