<?xml version="1.0"?>
<VTKFile type="UnstructuredGrid" version="0.1" byte_order="LittleEndian">
  <UnstructuredGrid>
    <FieldData>
      <DataArray type="Float32" Name="TIME"  NumberOfTuples="1" format="ascii"> 3.0500000000 </DataArray>
      <DataArray type="Int32"   Name="STEP"  NumberOfTuples="1" format="ascii"> 305000 </DataArray>
    </FieldData>
    <Piece NumberOfPoints="399" NumberOfCells="399">
      <Points>
        <DataArray type="Float32" NumberOfComponents="3" format="ascii">
 0.4248654122 0.2068248610 0.0759428039 0.5299832028 0.1286322067 0.0400908391 0.5050732487 0.1472904610 0.1825916034 0.6403306340 0.1082658538 0.1124597876 0.5396124125 0.3646963697 0.2040001502 0.5528625648 0.3591021381 0.2072260039 0.5678908701 0.4472840222 0.1939264283 0.7522013868 0.1787386864 0.1457377309 0.7585131670 0.1855912201 0.1501547683 0.6781370646 0.4551484323 0.1694654547 0.8496087672 0.2321587115 0.1150671675 0.7816290977 0.3733970218 0.0369724790 0.7953317343 0.3703140457 0.0373490111 0.8168259687 0.3857428284 0.0431748184 0.8042875338 0.3963503377 0.2240349152 0.8177013621 0.3880439917 0.2261934188 0.8970056458 0.3686625244 0.1723156245 0.7489574726 0.3245508903 0.6726865517 0.7715934722 0.2992913430 0.6582606710 0.7860262089 0.3639002237 0.5621495437 0.8677399864 0.6052388733 0.5111381682 0.9118153221 0.5556484469 0.5587191454 0.8933346874 0.6065783369 0.4947005678 0.9262235511 0.5446460181 0.5458333863 0.9417326610 0.3093620037 0.5254643205 0.9349240353 0.3343202919 0.5344013696 0.9466583456 0.4740624634 0.4508183318 0.2426831031 0.7997975084 0.0414072219 0.2550041610 0.8173385800 0.0914576250 0.0745408822 0.9091233226 0.1097898555 0.1543235430 0.7223190342 0.0815087688 0.0388481025 0.8885764285 0.1662299702 0.0554830813 0.8047835620 0.1553459499 0.0622452401 0.7985054891 0.1588802436 0.1716655534 0.7198407468 0.1453823910 0.1846701484 0.8263774233 0.1958310114 0.5696624453 0.7614151314 0.2455265201 0.6836954472 0.7584626371 0.2617669264 0.6518268531 0.7389197955 0.1620804195 0.7064494231 0.8129139658 0.2796420164 0.6573950507 0.7424562966 0.1621256877 0.6559148194 0.7439887367 0.1560625289 0.6050537598 0.8504642975 0.2446693489 0.6094906571 0.8548454015 0.2417828295 0.5207958252 0.7623147638 0.0984629425 0.7326499953 0.8581092218 0.2193676585 0.7273889817 0.8568454652 0.2066729024 0.5647756742 0.8549307911 0.1613304916 0.5655433894 0.8555395032 0.1539498232 0.1730882731 0.4807041450 0.3236689874 0.1676986431 0.4846854312 0.4415911690 0.1372092740 0.6603894430 0.2434465645 0.0843620869 0.6890420266 0.2636708370 0.1610016712 0.6613733594 0.2414221916 0.2576851586 0.4522143907 0.3447843990 0.2908215302 0.4616805230 0.4187196474 0.2909894456 0.5655087313 0.4523271141 0.3086336080 0.4589967739 0.2813298992 0.1182092894 0.7733036191 0.4080899134 0.2713211423 0.7854265332 0.2555503077 0.4240764849 0.5343440203 0.4164790384 0.4308571522 0.5455601683 0.4205638206 0.2460012138 0.8876086064 0.3715552076 0.3711243152 0.8402712875 0.4486925510 0.3884550417 0.8571705644 0.4473807792 0.4440476748 0.9114115889 0.2749304217 0.5616939129 0.7792369754 0.4616547971 0.7554627514 0.3393614011 0.5253667218 0.7491420173 0.3251155121 0.5221858877 0.7310407690 0.1923219674 0.5211146714 0.6605274359 0.0750024278 0.2089068154 0.6490924189 0.1078240886 0.2421732765 0.6082326167 0.1071842654 0.3161804182 0.5368083863 0.0942186492 0.3297711735 0.6497658998 0.8867029746 0.4452710737 0.6558269035 0.9007456110 0.3525092665 0.6572063669 0.9097062218 0.3464141491 0.7437350112 0.9446356973 0.5283420771 0.6975277886 0.9102992221 0.3310051256 0.7118965616 0.2412315530 0.2823330127 0.6923336719 0.1618247950 0.4376710242 0.7639622946 0.3793123340 0.3440282102 0.7707357689 0.3872245711 0.3523722823 0.5690853289 0.3189423972 0.3113876645 0.5335510103 0.2357768197 0.4478704810 0.4819227575 0.2672505770 0.3471226062 0.4709344273 0.3273643031 0.5039569885 0.4582433892 0.3355682933 0.5055485611 0.3861276413 0.4139788414 0.4441305264 0.5795570927 0.5972595954 0.5628766990 0.1272842833 0.2954914476 0.0794071172 0.1210214308 0.2920248829 0.0845406932 0.1781408640 0.3772352758 0.0528338282 0.1491845159 0.4388036128 0.0568120465 0.0950513070 0.4146546247 0.1045539651 0.2077575501 0.4386268165 0.0527652121 0.1964214530 0.4344279197 0.0567126047 0.2718648393 0.5419331840 0.0599521557 0.1116354835 0.4730190289 0.1348026731 0.1123442640 0.4827918688 0.1420330124 0.1047366461 0.4920106676 0.1450380477 0.0995444930 0.5073276606 0.1534449777 0.1196639202 0.6091636271 0.0768626814 0.1243078681 0.6141207180 0.0785434291 0.0731067946 0.6660880763 0.2039449488 0.0764849778 0.6738812079 0.1942214073 0.1368991795 0.3952860835 0.2410298015 0.2422128684 0.3041290573 0.2229840548 0.2365962021 0.2958151211 0.2228482842 0.2487064975 0.3044898844 0.2244116211 0.2293351206 0.2902093132 0.2219679205 0.2433827881 0.2948293772 0.2245371290 0.2197440641 0.2869283975 0.2202318839 0.2548628827 0.3066654948 0.2255143699 0.2368429881 0.2880812678 0.2239868330 0.2496209327 0.2953274354 0.2258874063 0.2609596364 0.3107895602 0.2263356723 0.2673063404 0.3172670235 0.2268942554 0.2743122994 0.3269064986 0.2271851252 0.0603277949 0.3238599150 0.2405523005 0.2818529377 0.3248939768 0.2291690654 0.2734194227 0.3270489858 0.3139738582 0.2819438390 0.3344278674 0.3145348692 0.0744055728 0.2508634133 0.2704876138 0.0724356764 0.1488448215 0.2300777922 0.1130153734 0.0685990637 0.2994137107 0.1289096190 0.0610866755 0.3107442612 0.2422525552 0.1318705846 0.3407277185 0.2508571084 0.1370579221 0.3419976183 0.2667430491 0.1556166352 0.3433604707 0.2741722197 0.1652460282 0.3438923217 0.2824433695 0.1696904978 0.3451599672 0.8679187934 0.1866463483 0.4388059237 0.8336815871 0.1057840515 0.4125781368 0.7587860273 0.1533895595 0.5977301792 0.7548314722 0.1422527706 0.5935171019 0.7470168286 0.1331133980 0.5912839473 0.2973160367 0.2801246034 0.5031615790 0.2898195431 0.2700266602 0.4140875220 0.2534998782 0.3450419673 0.3698619983 0.3102804949 0.3803417633 0.4286193990 0.6312907099 0.7388018754 0.5144407517 0.6934318684 0.6467628519 0.3835487477 0.7179984539 0.8411222225 0.5228732193 0.7601122195 0.7119190982 0.4431567445 0.7150663034 0.7763954177 0.3773385052 0.7224901880 0.7765642221 0.3764749272 0.7217472782 0.7830361504 0.3798932118 0.5481876371 0.5178808074 0.2034163614 0.6016766542 0.5231813833 0.2544417936 0.6024645525 0.5427584444 0.2596853492 0.6200428959 0.5473501915 0.0836202626 0.6262671381 0.5623852445 0.0836986218 0.6399060944 0.5592323398 0.0832586066 0.7413563015 0.6640244093 0.2510466709 0.8187171665 0.4748233938 0.2427179039 0.8265613955 0.4850378364 0.2453604030 0.7524090076 0.6663455224 0.2524255398 0.8342690635 0.4949637233 0.2478043304 0.7588448755 0.7526337001 0.1137493233 0.7644302780 0.6690100344 0.2538316656 0.7782255480 0.6723028396 0.2552950848 0.8026211328 0.7665639021 0.1615332853 0.8794303104 0.6238427807 0.0942655771 0.9217426637 0.5592530979 0.1912933226 0.8981096617 0.6354670476 0.0942521175 0.9265937995 0.6781191116 0.2684879541 0.9125147192 0.7262486393 0.2334558196 0.9396903109 0.6711480594 0.2630028897 0.3658527489 0.5765590822 0.0833478671 0.4803344754 0.7324427661 0.0279594474 0.4430327751 0.6659643406 0.0961067549 0.4495915513 0.6639644740 0.0952663666 0.4523355884 0.6598797358 0.0965929033 0.3894141174 0.1711515767 0.4216738338 0.3343285501 0.0835965717 0.4717568408 0.1711620072 0.1840714617 0.3885517895 0.2163971133 0.1306980789 0.4587598226 0.1403153958 0.0872443446 0.4244191617 0.9285707045 0.4500576898 0.5810533506 0.2542667047 0.1549619875 0.0768238692 0.2905357712 0.1241707989 0.1289598241 0.3212525319 0.0796903723 0.1134311689 0.3626135983 0.1664950538 0.0989910736 0.3618116119 0.1720330007 0.1001075179 0.3650573000 0.1699176780 0.1024752698 0.3680819072 0.1736263326 0.1065976537 0.3291194520 0.2036805772 0.1572364761 0.3370093875 0.2091278998 0.1616369182 0.0617459893 0.1503439792 0.5058006534 0.1851539213 0.1663348107 0.5386195958 0.1499010563 0.2658918905 0.5712995406 0.1483446878 0.2522252308 0.4787911887 0.0408593521 0.9382739607 0.1632791234 0.1579120104 0.9508843085 0.1726206317 0.1685811145 0.9468866576 0.1683305640 0.4623075777 0.4848399454 0.1661079693 0.4577480568 0.4752219312 0.1662386598 0.5258212546 0.3954495836 0.2669789139 0.8807306584 0.5610001090 0.0484150958 0.8724849351 0.5657485481 0.0455644541 0.8788722910 0.5639566593 0.0436091471 0.9528858670 0.5564839850 0.0824618239 0.0848606761 0.9509140994 0.2972595161 0.0909298715 0.9527339328 0.2984105665 0.7712012164 0.0774324320 0.2849992403 0.7320443638 0.0975391115 0.3049634646 0.7245534763 0.0995461167 0.3031239105 0.8351611460 0.1252680613 0.3223783645 0.8416792992 0.1387117847 0.3278997194 0.7707173659 0.1908851717 0.2038462239 0.7747345277 0.1947181955 0.2066767184 0.3426247229 0.1902186243 0.5344566831 0.3550200343 0.1906353779 0.5362000748 0.4139983499 0.2829447577 0.5664112142 0.9548998990 0.6061799906 0.3610196174 0.8663815822 0.6117988390 0.4001116717 0.8999165119 0.4790679485 0.3659213718 0.9022695577 0.4738063261 0.3628354469 0.8960218514 0.4718840358 0.3635560561 0.9027215475 0.3807540344 0.2926225785 0.8058069537 0.0773894481 0.5900194848 0.3432503873 0.9113996772 0.0686957220 0.3482557275 0.9041868900 0.0728547073 0.2973771679 0.8399038348 0.0897857608 0.2988436328 0.8343468634 0.0890976914 0.8006523214 0.6605800072 0.3595341721 0.6844023074 0.6155005950 0.3399598625 0.6751673897 0.6201202038 0.3384222653 0.1505746391 0.9040887667 0.4534406589 0.1568600578 0.9069177165 0.4543828944 0.1183437767 0.9135209187 0.2299884970 0.1206150005 0.9131855454 0.2376250950 0.2538581193 0.3186000518 0.1147662549 0.2556208980 0.3240384066 0.1154064510 0.2607369431 0.3190385853 0.1151258882 0.2621695559 0.3245767794 0.1156871408 0.2673291258 0.3190359934 0.1154431362 0.2631785118 0.3301129513 0.1161659419 0.2685370686 0.3247185848 0.1158617078 0.3468129188 0.2670677413 0.0577853398 0.2798052892 0.4118680372 0.0597692777 0.1971452932 0.4195476559 0.3309922927 0.3175368727 0.4047895666
[...]
      <PointData Scalars="overlap">
        <DataArray type="Float32" Name="overlap" format="ascii">
 0.0002256738 0.0000177311 0.0002060976 0.0000274067 0.0000868760 0.0000337615 0.0000069044 0.0000519129 0.0002481285 0.0002510930 0.0001091739 0.0000488476 0.0000731165 0.0004926129 0.0000276657 0.0002318473 0.0000930152 0.0000059993 0.0000061685 0.0001280103 0.0000224935 0.0000495570 0.0000312263 0.0000298140 0.0000237797 0.0000095867 0.0001204891 0.0000835184 0.0001927219 0.0001198372 0.0000302691 0.0000289624 0.0000076464 0.0000869544 0.0002833049 0.0000287849 0.0002005889 0.0000835259 0.0000471549 0.0000981287 0.0001040716 0.0001685446 0.0000239775 0.0000126720 0.0001839426 0.0000526483 0.0000015138 0.0000530729 0.0001663905 0.0000605142 0.0000793238 0.0002216151 0.0000634249 0.0000343353 0.0000158100 0.0000082449 0.0000549677 0.0002893862 0.0001523858 0.0000513006 0.0001177978 0.0000174551 0.0000945608 0.0000951384 0.0000256964 0.0003204480 0.0000196816 0.0000905649 0.0000903797 0.0000190598 0.0000294449 0.0000611927 0.0000073633 0.0000862133 0.0000186539 0.0000016406 0.0000080484 0.0000087847 0.0000386053 0.0001863066 0.0000089054 0.0000307418 0.0002621413 0.0001151916 0.0000367615 0.0001255531 0.0000100011 0.0000138272 0.0000039082 0.0000161065 0.0000166226 0.0000397113 0.0000071259 0.0000396262 0.0000270654 0.0001012126 0.0001229928 0.0000462635 0.0000056314 0.0000081128 0.0000276725 0.0000246758 0.0000824893 0.0000448123 0.0000528096 0.0000485604 0.0000603193 0.0000762480 0.0000621719 0.0000975047 0.0000384177 0.0000569468 0.0000136513 0.0001104771 0.0000157810 0.0000255109 0.0001252665 0.0001385791 0.0001236307 0.0000801908 0.0001385907 0.0000159971 0.0000305448 0.0000370232 0.0000327780 0.0000591281 0.0000284164 0.0000085927 0.0000406218 0.0001085809 0.0000463135 0.0000185780 0.0000024246 0.0000398515 0.0000015874 0.0000123312 0.0000049147 0.0000336546 0.0000387540 0.0000606389 0.0000184681 0.0000170564 0.0000080851 0.0000066427 0.0000121792 0.0000222297 0.0000204609 0.0000127640 0.0000106857 0.0000259497 0.0000088405 0.0001702668 0.0000143294 0.0000457246 0.0000110542 0.0000461939 0.0001710788 0.0000240750 0.0001047550 0.0002023504 0.0000361865 0.0000389406 0.0001533885 0.0000033832 0.0000396187 0.0002883881 0.0000076412 0.0000183770 0.0000145008 0.0000433958 0.0000043315 0.0000132878 0.0000081582 0.0000749044 0.0000376058 0.0000598352 0.0000613269 0.0000357728 0.0000607254 0.0000170980 0.0000350151 0.0000001427 0.0000568914 0.0000126109 0.0000173984 0.0000517803 0.0000188688 0.0000526750 0.0000300103 0.0000299207 0.0000203850 0.0000080202 0.0000288319 0.0000112657 0.0000229224 0.0000147616 0.0000045479 0.0000260921 0.0000157637 0.0000056711 0.0000675309 0.0000367943 0.0000021860 0.0000127565 0.0000078556 0.0000401235 0.0000105256 0.0000492193 0.0000640607 0.0000374699 0.0002483815 0.0000718516 0.0000078935 0.0000103460 0.0000072750 0.0000072008 0.0000115817 0.0000366645 0.0000337511 0.0000536999 0.0000649619 0.0000026054 0.0000080516 0.0000882893 0.0000310419 0.0000607442 0.0000852838 0.0000024903 0.0000074642 0.0000555141 0.0000899814 0.0000004606 0.0000286813 0.0000798732 0.0001171860 0.0003508387 0.0003215862 0.0000397245 0.0000256042 0.0001376885 0.0001623296 0.0000230318 0.0000390410 0.0000070458 0.0000153202 0.0000604411 0.0000176991 0.0000216725 0.0000120184 0.0000310279 0.0000744076 0.0000534449 0.0000057708 0.0000327219 0.0000231978 0.0000210135 0.0000334614 0.0000189260 0.0000233868 0.0000274107 0.0000620393 0.0000032191 0.0000057002 0.0000214960 0.0000013748 0.0000081367 0.0000690622 0.0002011976 0.0001006249 0.0000706503 0.0000618067 0.0000253756 0.0000536431 0.0000845861 0.0000196284 0.0000504765 0.0000230447 0.0001329067 0.0000053977 0.0000218072 0.0000399026 0.0000061815 0.0000000589 0.0000137701 0.0000075457 0.0000123519 0.0000692170 0.0000456173 0.0000089104 0.0000061804 0.0000204458 0.0000508441 0.0000420032 0.0000040228 0.0000223718 0.0000264969 0.0000097209 0.0000019847 0.0000134567 0.0000581355 0.0001164178 0.0000070158 0.0000207755 0.0000301207 0.0000081294 0.0000236316 0.0000219682 0.0000728913 0.0000743188 0.0000795318 0.0000089182 0.0000790131 0.0000033272 0.0000337411 0.0000162248 0.0000038644 0.0000087922 0.0000220454 0.0000322486 0.0000314654 0.0000289504 0.0000208475 0.0000060162 0.0000217847 0.0000137430 0.0000218323 0.0000041325 0.0000587461 0.0000081249 0.0000050901 0.0000113234 0.0000606878 0.0000876750 0.0000141334 0.0000073494 0.0000051448 0.0000503305 0.0000601849 0.0000342905 0.0000376852 0.0000593282 0.0000512672 0.0000146722 0.0000058130 0.0000107141 0.0000037829 0.0000072715 0.0000083654 0.0000097860 0.0000055106 0.0000459257 0.0000167024 0.0000077165 0.0000327850 0.0000234384 0.0000008762 0.0000055064 0.0000595470 0.0000461992 0.0000196062 0.0000226605 0.0000419209 0.0000146519 0.0000080104 0.0000069234 0.0000338480 0.0000269599 0.0000104442 0.0000220938 0.0000404654 0.0000195544 0.0000140296 0.0000139061 0.0000067067 0.0000151505 0.0000079017 0.0000101512 0.0000158775 0.0000149541 0.0000045930 0.0000050914 0.0000516991 0.0000115987 0.0000608410 0.0000297634 0.0000320209 0.0000083203 0.0000189871 0.0000047670 0.0000028139 0.0000037448 0.0000652031 0.0000062800 0.0000314396 0.0000106218 0.0000235045 0.0000129567 0.0000246095 0.0001359067
        </DataArray>
        <DataArray type="Float32" Name="contact normal" NumberOfComponents="3" format="ascii">
 0.9747520370 -0.1893318056 -0.1183720141 0.1555830609 0.9312607797 0.3294651291 -0.0006364146 0.6164521285 -0.7873921312 -0.2103105163 0.7157886396 -0.6658949693 0.1103497858 -0.0480198597 -0.9927320977 0.2338268232 -0.1107029563 -0.9659554194 0.5992148573 -0.7719990575 -0.2120353981 -0.3785369721 0.6351393498 -0.6732813432 -0.3288797330 0.6782703837 -0.6571053247 -0.1641739162 -0.9501174209 -0.2651863718 -0.8558113813 0.4668460198 0.2228041143 -0.1400011616 -0.4491023721 0.8824436153 -0.1479971825 -0.4748778594 0.8675182146 -0.1169557436 -0.3830496902 0.9162937787 -0.0083271472 0.0626917131 -0.9979982003 0.0267983780 -0.0943835661 -0.9951751551 -0.8319771748 -0.0603884076 0.5515135726 -0.4683965964 0.3948420812 -0.7903824134 -0.3784790367 -0.4904385690 -0.7849991266 0.4266995431 -0.1496506542 0.8919261077 0.4063737392 -0.1798403441 0.8958335977 -0.6620561339 -0.1481319777 -0.7346690362 0.5876498218 -0.7239456151 0.3613453104 -0.6340694572 -0.2069738904 -0.7450622337 -0.0676249873 -0.3232526302 -0.9438933193 -0.7624901098 0.1937336744 -0.6173136123 0.3124995502 -0.0294101353 0.9494625190 -0.7342294761 -0.5295650076 0.4248152295 -0.7988441675 -0.6011058487 0.0227981279 -0.0013743064 -0.9554445229 0.2951675370 0.3770181995 0.7929028653 0.4787090176 0.3335824685 -0.6196437541 -0.7104677014 0.7209770017 0.5217187969 -0.4560719898 0.7537152861 0.4852967508 -0.4431707698 0.2852226560 0.6836326772 -0.6717844886 -0.4732869486 -0.4351823591 -0.7659084662 0.2186372113 -0.1884071262 -0.9574447893 -0.6235793604 0.7261398883 -0.2896025619 -0.5201704853 0.6631009379 0.5382562701 -0.1222900853 -0.0632405378 -0.9904775461 -0.3277450042 0.7301520756 0.5995507974 -0.7229374966 0.6861791160 0.0807440203 0.4062211115 -0.7683160550 -0.4946461849 0.4402992762 -0.7260722782 -0.5281624694 0.1713999536 0.2531793068 0.9521146436 -0.4363240527 -0.6609580489 0.6105372869 -0.9456348904 -0.3248595904 -0.0155209717 0.6139347498 -0.7892960142 0.0097941327 0.5989272879 -0.8008032340 0.0005331637 0.5472279932 0.8316327867 0.0944903779 0.4998143219 0.7781879479 -0.3802751129 0.0644277050 -0.3623446338 0.9298147327 0.7572551536 -0.0105169462 0.6530344755 0.1054387232 0.2946207953 0.9497795864 -0.1808933191 0.8143162744 -0.5515130210 -0.1033724603 0.6607689622 -0.7434369597 -0.0956843488 0.2005352005 -0.9750026353 -0.2508168158 0.5934771835 0.7647717029 0.4793169644 -0.4878982483 -0.7295276190 0.2611741291 -0.8734936794 0.4108489580 -0.4050101062 0.2950853699 -0.8653851387 -0.5610533158 0.6174375371 -0.5513529401 0.6797007274 -0.6364634576 -0.3645835820 0.1152552208 -0.2602456749 -0.9586388385 0.2785618178 -0.2555572601 -0.9257936058 -0.1151241890 -0.6947454265 0.7099825445 -0.1319868576 -0.1363897867 -0.9818234544 0.1889874534 -0.3259842499 0.9262926164 0.1771333355 -0.3355285830 0.9252266487 -0.3539269500 0.6917233367 -0.6294875213 -0.5815520292 -0.3308834986 0.7431778708 -0.6850154846 -0.6446694306 0.3393451208 -0.3519551708 0.0410009178 -0.9351184323 0.2481542195 0.1400536714 -0.9585428798 0.6234514996 0.3240031719 -0.7115688106 0.9444679587 -0.0566716665 0.3236797757 0.9482876322 0.0855592894 0.3056634989 -0.4734755843 0.6020708242 -0.6429086978 -0.5584294817 0.4656559814 0.6865282375 -0.4312491324 0.6832506679 0.5892306090 0.1343175349 0.8425324047 -0.5216300863 -0.6365650595 -0.7535032265 0.1643709607 0.0926926390 -0.3335326643 0.9381705797 0.0489931258 -0.2190281714 0.9744877289 0.3163019038 0.5395920156 -0.7802522428 0.7737820055 0.4542837214 0.4414608798 0.3336764771 0.5760502824 -0.7462078000 0.2731986364 0.6214709834 -0.7342590291 0.8864819801 0.4479872356 -0.1160048954 -0.3028269549 -0.8435986221 -0.4434379327 -0.2974549373 0.9482585672 0.1110236467 -0.3437161553 0.8246739680 0.4491904396 -0.8803490574 -0.1147584796 -0.4602347536 -0.2751887152 -0.8528887647 -0.4436799815 -0.0722181906 -0.8079371319 -0.5848265759 -0.2014317228 0.9574072511 0.2068734313 -0.5934970489 0.7299743801 0.3389670445 -0.3922073685 -0.5327763304 0.7498818319 0.3396785056 0.5385613327 -0.7710837852 0.3863048857 0.5406343555 -0.7473172211 0.3396637363 0.5385604511 -0.7710909069 0.3396597614 0.5385602137 -0.7710928236 0.1126308337 -0.4601101128 0.8806889232 0.1108378754 -0.4528136273 0.8846890891 -0.0837944418 -0.9413520144 -0.3268560486 0.7067014494 -0.6148200142 -0.3500991453 0.4599460823 -0.3548488276 -0.8139606323 -0.2235158172 0.1352109487 0.9652764779 -0.2231888187 0.1348053897 0.9654088554 -0.2230492818 0.1346327267 0.9654651971 -0.2232358221 0.1348636779 0.9653898467 -0.2225845200 0.1340560177 0.9656526889 -0.2236764967 0.1354102396 0.9652113198 -0.2227775307 0.1342956679 0.9655748782 -0.2224745470 0.1339196558 0.9656969513 -0.1802174844 0.0818588047 0.9802146675 -0.2226830814 0.1341895675 0.9656114152 -0.2226678356 0.1344227203 0.9655825015 -0.2230811355 0.1350021021 0.9654062562 0.1669349323 -0.3145193661 -0.9344572204 -0.2215269734 0.1354818889 0.9656968768 0.2534593974 -0.2169920487 -0.9426944280 0.2505246145 -0.2101708585 -0.9450214959 0.4823416186 -0.3851738434 -0.7867576967 0.7374690436 0.4353383819 0.5163524987 0.4636565698 0.3371357342 -0.8193668787 0.8230711682 -0.5669983719 -0.0326603480 0.2197687165 -0.1326073795 -0.9664972810 0.2253236148 -0.1300580789 -0.9655641691 0.2248702619 -0.1264246369 -0.9661522533 0.2037485394 -0.0979233371 -0.9741137268 0.2245749872 -0.1254518676 -0.9663477138 0.1756682799 -0.7374355398 0.6521728913 0.1959009095 0.1959943979 0.9608376708 -0.0155846101 0.4234280936 -0.9057956555 -0.0707410803 0.3607669071 -0.9299693212 -0.1004626804 0.3256043195 -0.9401537518 -0.0743430421 0.1549512469 -0.9851209180 -0.3376566739 0.8585548526 0.3858387431 0.1560653975 -0.5231811905 0.8378096643 -0.3066422222 -0.9367069775 -0.1689691863 0.9259449715 0.1042918299 -0.3629726216 0.5340503794 0.5979809108 0.5976696601 -0.6750052415 -0.6277733968 -0.3876447939 -0.9195144428 0.3290691074 -0.2149574657 0.0689781752 -0.6885747976 0.7218772468 0.0714418783 -0.6715832821 0.7374767476 0.0633436114 -0.3691963736 0.9271901771 0.4348556565 0.8794899388 -0.1933856393 -0.3196951245 -0.5168084657 -0.7941687712 0.2726996129 0.5234719458 -0.8072249024 -0.0187415335 0.0079257946 0.9997929469 -0.0187514425 0.0079560643 0.9997925207 0.0753977425 -0.0381819673 0.9964222588 0.2195137335 -0.5921882011 -0.7753237100 -0.1204663261 0.3287091443 -0.9367166929 -0.1204795093 0.3287200096 -0.9367111845 0.2194851827 -0.5920002406 -0.7754753185 -0.1204911772 0.3287296256 -0.9367063091 0.1357455430 -0.0261285755 0.9903991342 0.2192748124 -0.5917341489 -0.7757378769 0.2181244519 -0.5917951887 -0.7760155785 -0.3181080424 -0.8153466308 0.4837531861 -0.2059620620 0.1751993184 0.9627485798 -0.8647688455 0.4791990624 -0.1501436062 -0.0545726006 0.3320503238 0.9416816945 -0.6879596637 0.4288613058 -0.5854822641 -0.0388019115 -0.7615445035 -0.6469500605 0.1346506335 -0.2781361218 -0.9510570460 0.6640590520 0.3246365331 -0.6735255725 -0.2386479619 -0.2963482947 0.9247836712 -0.1922878019 -0.3520495484 -0.9160166575 -0.1771490406 -0.3510755305 -0.9194368871 -0.1801525860 -0.3565834161 -0.9167296838 -0.8774178590 0.4309599221 0.2107402339 -0.5001024965 0.4190590129 -0.7578172845 0.5889309901 -0.5446883613 -0.5970551716 0.2173114185 -0.1597828067 -0.9629357206 0.9732634558 0.2296877792 0.0013302853 -0.6192988394 0.5275780702 -0.5814897483 0.9097896234 -0.4077876257 0.0774086142 0.6530758149 0.0527483233 -0.7554532377 0.1091773801 0.9771551131 0.1823408472 -0.6847317918 -0.2364346832 0.6893772653 -0.6894318311 -0.2314040975 0.6863933959 -0.6822153968 -0.2397602834 0.6907222009 -0.6643670643 -0.2351476242 0.7094519002 0.4877543016 -0.4803191993 -0.7289644765 0.7528407446 -0.6492567638 -0.1081502102 0.0332276572 0.4262007444 0.9040181681 -0.6547190338 0.4061961815 0.6374540367 -0.0724756427 -0.4846442655 -0.8717036292 -0.5033486646 -0.6987194857 0.5083612910 0.3390259808 0.2884409860 -0.8954681356 -0.2373909282 0.0128359657 -0.9713293907 -0.2615781203 -0.0587860292 -0.9633904140 0.7522965413 0.2694439768 0.6012070004 0.1439856401 -0.6094826040 0.7796147067 -0.4401042460 0.8365809384 0.3262523351 0.2696951252 0.7976568232 0.5394516956 0.2716264514 0.8386198755 0.4721607516 0.2090920019 0.6355670502 -0.7431924780 -0.3845999793 0.7536571720 -0.5329950497 -0.2919924447 0.6684291588 0.6840635000 -0.2519066716 0.6666684728 0.7014956708 -0.1773009335 0.9573715785 0.2280439424 0.3002269070 0.5922485536 -0.7477335455 0.2806554674 0.5827406822 -0.7626570697 -0.2984596030 0.4463287503 -0.8436305542 -0.3000614334 0.4872075730 -0.8201170142 -0.1923608071 -0.5414409902 0.8184369090 -0.1957642413 -0.5312693067 0.8242750060 -0.4402921022 0.6284622868 -0.6412316421 0.0843772100 0.9896488515 0.1160846121 -0.6559123485 -0.6631195324 0.3606265060 -0.6477635510 -0.7391203109 -0.1846714599 0.6216140679 -0.6940371619 -0.3631919169 -0.4377360685 0.6553820423 -0.6155172726 -0.1216889658 0.3523761265 -0.9279131754 -0.2329834448 0.2568450898 -0.9379495265 -0.4786329508 0.7628185806 -0.4347623622 -0.1736998210 0.6566930361 0.7338818900 -0.7734344148 -0.6004122607 -0.2032346506 -0.7640881198 -0.6230773985 -0.1671642923 0.2986767903 0.2188531402 -0.9289216748 0.2974141025 0.2166302576 -0.9298473978 -0.2439429515 0.3579161799 -0.9013256041 0.3978250692 0.4542072948 -0.7971392273 0.3423589937 0.4963649048 -0.7977544740 -0.3679652285 0.7958152724 0.4809154217 -0.3649468351 0.8040943070 0.4693039026 -0.8854914272 0.3731744369 0.2768497281 -0.8869869645 0.3678076119 0.2792341051 0.0322145312 0.0956181247 -0.9948966772 0.0299145973 0.0983197739 -0.9947051518 0.0682039066 0.0531585276 -0.9962541835 0.0336811216 0.0939336532 -0.9950085682 0.0706344390 0.0502674276 -0.9962348929 0.0315107363 0.0964910011 -0.9948349412 0.0697428721 0.0513307447 -0.9962434875 -0.9735243047 0.2172987961 0.0709342047 -0.4238593700 -0.7489784911 -0.5092881840 0.4890301687 -0.6031960599 0.6300825402 0.0011466995 0.0684633340 -0.9976529742 0.1759370311 -0.2961237193 -0.9388061056 0.5084273262 -0.3526506569 -0.7855820569 0.1803335348 -0.9835926917 -0.0050232522 0.9711438477 -0.0971655709 -0.2178037625 -0.2651259766 -0.9614080571 0.0735034984 -0.2908746158 -0.5680891773 0.7698484556 0.6003643802 -0.1235857194 -0.7901197257 0.4877601764 0.4212406257 0.7646217009 -0.0679796786 -0.9155840613 -0.3963389837 -0.1218187352 0.3804294990 -0.9167516523 0.3198470885 -0.2090833559 0.9241114599 -0.6040725572 -0.0347770087 -0.7961701484 -0.2391575096 -0.6359422631 0.7337445902 -0.2315469044 -0.6370182115 0.7352508614 0.8045583110 -0.5925255355 0.0399926732 0.5654968542 -0.0072977653 0.8247181643 0.0996571550 0.7561034099 0.6468199788 -0.1534915061 0.6421923816 -0.7510188430 0.7465791297 0.1815167778 -0.6400556714 0.1414909912 -0.5278205955 -0.8374877422 -0.6001478096 -0.5560417272 -0.5750132210 -0.2655364119 0.5367663163 -0.8008572505 -0.8479772736 -0.3158369529 -0.4256542761 -0.7710759187 -0.1248579560 -0.6243816289 0.3590317283 0.2544326426 -0.8979756391 0.3518006346 0.2536791394 -0.9010456191 0.3589467120 0.2544577651 -0.8980025076 0.4646802950 -0.0593565095 0.8834868580 -0.0936885878 -0.1858428909 -0.9781026881 -0.0848686149 -0.1981227919 -0.9764961226 -0.1138830851 -0.6161840856 -0.7793252309 0.0886096455 0.1653458555 0.9822469541 0.7157339045 -0.2994192687 -0.6309303286 0.8781736437 0.0218693338 0.4778417979 0.4082106679 0.9091240146 -0.0828104863 0.9197847042 -0.1472313283 -0.3637568334 0.4277871564 0.5480317494 -0.7187901992 0.4394525725 0.5374466335 -0.7197447830 0.4455988027 0.4935958129 -0.7468633613 -0.0485445116 -0.6506542511 0.7578208733 -0.0481427755 -0.6506589929 0.7578424297 -0.0497852613 -0.6508244508 0.7575941935 -0.0495873404 -0.6508279717 0.7576041492 -0.0496795314 -0.6508528601 0.7575767279 0.3639442348 -0.0156529101 -0.9312892034 0.9432762681 0.2503096302 -0.2181168746 -0.4285991578 0.5268586381 0.7339773412 -0.4289901859 0.5264329944 0.7340543051 -0.4345534670 0.5250296807 0.7317835190 -0.7262411147 0.3025463882 0.6172839916 -0.0362873819 0.2405656483 -0.9699543261 0.0041045782 0.2892656922 -0.9572400492 0.0163269107 0.3096337945 -0.9507157016 0.2013625581 0.3973580961 -0.8952986449 0.1078004097 0.8494507940 -0.5165388856 -0.3693047009 -0.1432353876 -0.9182034969 -0.2700035124 0.0784261820 -0.9596600634 -0.3530754377 -0.2886726207 0.8899471070 -0.3215963173 -0.9253127681 -0.2009280716 0.2932614737 -0.5837409112 -0.7571289564 -0.0298822981 -0.6451822627 -0.7634441015 0.2668554956 0.3719815411 -0.8890544851 0.3191363682 0.1144317095 -0.9407748734 -0.3964539249 0.0135145883 -0.9179551413 -0.3972033431 0.0123066938 -0.9176481077 -0.3732483556 0.0502362628 -0.9263703271 -0.3734659326 0.0499447995 -0.9262983937 0.1842808802 -0.3894579088 0.9024206860 -0.2694217269 0.0358335317 -0.9623553871 -0.2120400811 0.0192419389 -0.9770715183 -0.0860835569 -0.1622121784 0.9829938100 0.6306880728 -0.6959591429 -0.3433269962 0.6344161490 -0.6933036914 -0.3418276486 -0.2452325663 0.8945733945 -0.3736300715 -0.4035534008 0.9127961984 0.0628311459 -0.5502966076 -0.7400378055 0.3866751740 0.1735290566 0.3615592493 -0.9160581727 0.1744366151 0.3463854250 -0.9217315253 0.3688210127 -0.7351857142 -0.5687468913 -0.4895806721 -0.5444939149 -0.6810559023 0.0874894998 0.4826695379 0.8714216572 0.0729889495 0.4577524057 0.8860786355 0.2545458352 0.7719023917 -0.5825573925 0.2177639413 0.8018645074 -0.5564100804 -0.1614484742 -0.9838667005 0.0770759738 -0.0928248180 0.9011142902 0.4235287348 -0.4452150276 -0.8639974765 -0.2351423820 0.7007713008 -0.1018180668 0.7060826193 0.7780967100 -0.0149416500 0.6279667642 -0.1273261935 -0.6337150413 0.7630159153 -0.1228137948 -0.6298715922 0.7669279948 -0.1272948614 -0.6337400167 0.7630003994 -0.1227835041 -0.6299708957 0.7668512774 -0.1228404489 -0.6300187368 0.7668028530 -0.0929394392 -0.6040495922 0.7915089076 -0.1219382181 -0.6310513707 0.7660974080 -0.0934815280 -0.6037159729 0.7916995819 -0.0933600433 -0.6036204490 0.7917867490 -0.0310445718 0.6016934772 0.7981235456 0.5127328409 0.8092216082 -0.2868194949 0.9208298934 0.2509983630 0.2984495422 -0.0788972926 0.2649329146 -0.9610336976 -0.0744634913 0.2681966759 -0.9604820308 -0.0701399440 0.2713059879 -0.9599340858 0.3274870353 0.4936199906 -0.8056621790 0.6858509393 0.7189857796 0.1125519340 -0.1523917104 -0.6449757258 0.7488545117 -0.1524398468 -0.6449537032 0.7488636817 -0.1524533095 -0.6449513599 0.7488629593 -0.1524052068 -0.6449568778 0.7488679982 -0.1524358423 -0.6449533715 0.7488647825 -0.1524558118 -0.6449510501 0.7488627167 -0.1524525609 -0.6449514245 0.7488630560 -0.1523860502 -0.6449590837 0.7488699968 -0.1524010821 -0.6449573527 0.7488684286 0.0626584796 0.755243709