<?xml version="1.0"?>
<VTKFile type="UnstructuredGrid" version="0.1" byte_order="LittleEndian">
  <UnstructuredGrid>
    <FieldData>
      <DataArray type="Float32" Name="TIME"  NumberOfTuples="1" format="ascii"> 0.5000000000 </DataArray>
      <DataArray type="Int32"   Name="STEP"  NumberOfTuples="1" format="ascii"> 50000 </DataArray>
    </FieldData>
    <Piece NumberOfPoints="9" NumberOfCells="9">
      <Points>
        <DataArray type="Float32" NumberOfComponents="3" format="ascii">
 0.4655602495 0.1326574071 0.1481394792 0.4585492241 0.1367878818 0.1637007026 0.6917368770 0.3200816695 0.0460199522 0.6930840739 0.3268894358 0.0477166668 0.7018414632 0.3279849382 0.0485544438 0.8348408402 0.5405866596 0.0300325936 0.6516975966 0.4642202160 0.0426833633 0.3668468831 0.1365147063 0.0530585268 0.1956037918 0.5635418792 0.1158629123
        </DataArray>
      </Points>
      <Cells>
        <DataArray type="Int32" Name="connectivity" format="ascii">
 0 1 2 3 4 5 6 7 8
        </DataArray>
        <DataArray type="Int32" Name="offsets" format="ascii">
 1 2 3 4 5 6 7 8 9
        </DataArray>
        <DataArray type="UInt8" Name="types" format="ascii">
 1 1 1 1 1 1 1 1 1
        </DataArray>
      </Cells>
      <PointData Scalars="overlap">
        <DataArray type="Float32" Name="overlap" format="ascii">
 0.0005527156 0.0005989932 0.0002280109 0.0004766297 0.0006689162 0.0002526588 0.0011282064 0.0000553222 0.0004658542
        </DataArray>
        <DataArray type="Float32" Name="contact normal" NumberOfComponents="3" format="ascii">
 0.3874231312 0.9207529062 -0.0460152489 0.2972928002 0.9536964455 -0.0456079027 -0.2967469021 -0.3904637131 0.8714811328 -0.1936006389 -0.3416677186 0.9196640488 -0.1499850103 -0.3363729210 0.9297084246 0.3371432077 0.7990510796 0.4978471952 0.3579124457 0.1922115157 -0.9137578533 -0.2318535984 0.9719463219 -0.0395506796 0.6707752209 -0.7408033141 0.0356518275
        </DataArray>
        <DataArray type="Float32" Name="contact force" NumberOfComponents="3" format="ascii">
 67.9947255043 328.8404274083 -54.4574727522 56.8341119766 356.6438947161 -51.9538108168 -20.1108982281 -2.2758339152 149.1140064049 -25.7927547616 -27.1411907758 295.4460207667 -26.4329456757 -51.7488900823 408.7069200119 -14.7281364827 113.3587059634 132.5333928310 66.3954414479 95.5592787749 -694.7053648365 -3.8129934171 32.4252379518 -20.0668960546 231.4855482098 -160.1206471876 157.6319061906
        </DataArray>
        <DataArray type="Float32" Name="sliding spring" NumberOfComponents="3" format="ascii">
 0.0003360343 -0.0001305095 0.0002177637 0.0002778428 -0.0000771628 0.0001975695 -0.0001138112 -0.0002841230 -0.0001660539 -0.0001642930 -0.0003920456 -0.0001802360 -0.0001875750 -0.0004625239 -0.0001976038 0.0003657636 0.0000431870 -0.0003170117 0.0009771335 0.0001919626 0.0004231161 -0.0000215722 -0.0000009063 0.0001041893 -0.0002444192 -0.0002607954 -0.0008203710
        </DataArray>
      </PointData>
    </Piece>
  </UnstructuredGrid>
</VTKFile>
