<?xml version="1.0"?>
<VTKFile type="UnstructuredGrid" version="0.1" byte_order="LittleEndian">
  <UnstructuredGrid>
    <FieldData>
      <DataArray type="Float32" Name="TIME"  NumberOfTuples="1" format="ascii"> 3.5500000000 </DataArray>
      <DataArray type="Int32"   Name="STEP"  NumberOfTuples="1" format="ascii"> 355000 </DataArray>
    </FieldData>
    <Piece NumberOfPoints="399" NumberOfCells="399">
      <Points>
        <DataArray type="Float32" NumberOfComponents="3" format="ascii">
 0.4248653512 0.2068250366 0.0759427505 0.5299832121 0.1286323436 0.0400907005 0.5050732740 0.1472904984 0.1825915550 0.6403306643 0.1082659498 0.1124596760 0.5396124360 0.3646964428 0.2040002585 0.5528625743 0.3591022157 0.2072261269 0.5678908925 0.4472841112 0.1939265236 0.7522014288 0.1787387607 0.1457376616 0.7585132077 0.1855912879 0.1501547035 0.6781371054 0.4551485767 0.1694655608 0.8496087706 0.2321588458 0.1150671016 0.7816291186 0.3733971968 0.0369725140 0.7953317548 0.3703142190 0.0373490449 0.8168259897 0.3857429966 0.0431748653 0.8042875681 0.3963503803 0.2240350827 0.8177013920 0.3880440512 0.2261935743 0.8970056306 0.3686626045 0.1723156731 0.7489575876 0.3245509352 0.6726872835 0.7715936025 0.2992913627 0.6582614772 0.7860263023 0.3638999702 0.5621502073 0.8677399184 0.6052385283 0.5111381062 0.9118153411 0.5556482751 0.5587192605 0.8933346105 0.6065779611 0.4947004834 0.9262234551 0.5446457853 0.5458333935 0.9417327558 0.3093617476 0.5254650701 0.9349240941 0.3343200582 0.5344020187 0.9466583474 0.4740619947 0.4508186542 0.2426832046 0.7997978142 0.0414071395 0.2550042561 0.8173388411 0.0914575492 0.0745409884 0.9091234831 0.1097899438 0.1543236510 0.7223192348 0.0815086607 0.0388482422 0.8885766185 0.1662300506 0.0554832411 0.8047837617 0.1553459710 0.0622453922 0.7985056809 0.1588802646 0.1716657015 0.7198409232 0.1453823597 0.1846703081 0.8263776183 0.1958309574 0.5696625560 0.7614154635 0.2455267669 0.6836955897 0.7584628734 0.2617670132 0.6518270144 0.7389198053 0.1620805436 0.7064496114 0.8129142175 0.2796419490 0.6573952075 0.7424563146 0.1621258156 0.6559149725 0.7439887429 0.1560626470 0.6050540154 0.8504645199 0.2446691670 0.6094909111 0.8548456280 0.2417826460 0.5207959998 0.7623147090 0.0984628569 0.7326502623 0.8581093301 0.2193674926 0.7273892470 0.8568455255 0.2066727627 0.5647759338 0.8549308871 0.1613303116 0.5655436362 0.8555396013 0.1539496416 0.1730880502 0.4807041391 0.3236694211 0.1676982897 0.4846855663 0.4415916089 0.1372091808 0.6603894177 0.2434467562 0.0843619737 0.6890420101 0.2636709646 0.1610015793 0.6613733136 0.2414224121 0.2576849342 0.4522144899 0.3447849486 0.2908212147 0.4616806974 0.4187202107 0.2909890755 0.5655089370 0.4523274441 0.3086334984 0.4589967113 0.2813304457 0.1182090520 0.7733036804 0.4080899034 0.2713210210 0.7854265559 0.2555505516 0.4240762233 0.5343441227 0.4164798392 0.4308569082 0.5455602329 0.4205645876 0.2460009754 0.8876086814 0.3715553323 0.3711239761 0.8402714283 0.4486927917 0.3884547015 0.8571707220 0.4473810912 0.4440475490 0.9114116321 0.2749307346 0.5616935499 0.7792371605 0.4616554591 0.7554628626 0.3393613872 0.5253672548 0.7491420780 0.3251155302 0.5221863630 0.7310401287 0.1923221336 0.5211141538 0.6605270919 0.0750022952 0.2089066647 0.6490922837 0.1078241176 0.2421730928 0.6082326125 0.1071845112 0.3161804087 0.5368083849 0.0942191171 0.3297713455 0.6497662122 0.8867027248 0.4452710336 0.6558273413 0.9007454016 0.3525091768 0.6572067961 0.9097060149 0.3464140633 0.7437351108 0.9446357139 0.5283420974 0.6975282463 0.9102991111 0.3310050878 0.7118967298 0.2412318112 0.2823333835 0.6923338200 0.1618248967 0.4376713585 0.7639624285 0.3793125523 0.3440287986 0.7707359110 0.3872248212 0.3523728025 0.5690854662 0.3189426952 0.3113881411 0.5335512183 0.2357770238 0.4478707901 0.4819228419 0.2672507863 0.3471230570 0.4709345926 0.3273643461 0.5039575558 0.4582435436 0.3355683074 0.5055491726 0.3861278624 0.4139789970 0.4441312006 0.5795572944 0.5972596008 0.5628776020 0.1272842590 0.2954916813 0.0794074189 0.1210214169 0.2920251367 0.0845410164 0.1781406896 0.3772355466 0.0528338934 0.1491842931 0.4388038952 0.0568121107 0.0950512139 0.4146548691 0.1045541684 0.2077573453 0.4386270258 0.0527654514 0.1964212598 0.4344281243 0.0567128377 0.2718646754 0.5419334097 0.0599523710 0.1116352879 0.4730192717 0.1348029146 0.1123440689 0.4827921078 0.1420332589 0.1047364513 0.4920109050 0.1450382998 0.0995442989 0.5073278934 0.1534452384 0.1196637502 0.6091638978 0.0768628787 0.1243076989 0.6141209896 0.0785436213 0.0731066456 0.6660882953 0.2039451962 0.0764848427 0.6738814455 0.1942216598 0.1368992513 0.3952858548 0.2410299538 0.2422130846 0.3041289832 0.2229841652 0.2365964285 0.2958150402 0.2228483850 0.2487067142 0.3044898161 0.2244117279 0.2293353534 0.2902092247 0.2219680171 0.2433830169 0.2948293021 0.2245372238 0.2197442998 0.2869282998 0.2202319813 0.2548630975 0.3066654324 0.2255144760 0.2368432248 0.2880811854 0.2239869214 0.2496211609 0.2953273669 0.2258874975 0.2609598466 0.3107895040 0.2263357810 0.2673065429 0.3172669743 0.2268943702 0.2743124900 0.3269064577 0.2271852510 0.0603279652 0.3238595880 0.2405523287 0.2818531322 0.3248939420 0.2291691826 0.2734195285 0.3270488594 0.3139740599 0.2819439352 0.3344277510 0.3145350837 0.0744058222 0.2508630623 0.2704875429 0.0724360590 0.1488444923 0.2300775776 0.1130158506 0.0685987338 0.2994134517 0.1289100774 0.0610863615 0.3107440144 0.2422529105 0.1318703782 0.3407276437 0.2508574570 0.1370577251 0.3419975505 0.2667433763 0.1556164553 0.3433604169 0.2741725358 0.1652458569 0.3438922720 0.2824436798 0.1696903350 0.3451599268 0.8679184010 0.1866464362 0.4388060949 0.8336813368 0.1057840504 0.4125783406 0.7587849806 0.1533900410 0.5977299775 0.7548304487 0.1422532408 0.5935169086 0.7470158200 0.1331138551 0.5912837542 0.2973172310 0.2801243753 0.5031614456 0.2898199846 0.2700269000 0.4140873660 0.2534999734 0.3450423845 0.3698624633 0.3102810667 0.3803418612 0.4286195697 0.6312902453 0.7388021842 0.5144402008 0.6934321491 0.6467629014 0.3835487204 0.7179980907 0.8411224427 0.5228730095 0.7601122208 0.7119191421 0.4431570061 0.7150667559 0.7763954179 0.3773383837 0.7224906436 0.7765642342 0.3764748263 0.7217477209 0.7830361574 0.3798930913 0.5481878772 0.5178808474 0.2034164498 0.6016768708 0.5231815037 0.2544418899 0.6024647701 0.5427585818 0.2596854637 0.6200432734 0.5473502693 0.0836203443 0.6262675126 0.5623853236 0.0836987059 0.6399064648 0.5592324238 0.0832586923 0.7413564958 0.6640245938 0.2510468988 0.8187174147 0.4748235591 0.2427182570 0.8265616395 0.4850380036 0.2453607610 0.7524092008 0.6663457077 0.2524257745 0.8342693037 0.4949638924 0.2478046930 0.7588451861 0.7526338150 0.1137494944 0.7644304702 0.6690102205 0.2538319078 0.7782257391 0.6723030268 0.2552953357 0.8026213937 0.7665640299 0.1615335085 0.8794306800 0.6238428965 0.0942658338 0.9217429121 0.5592532864 0.1912937149 0.8981100227 0.6354671229 0.0942522990 0.9265939809 0.6781193147 0.2684883105 0.9125149293 0.7262488735 0.2334561899 0.9396905031 0.6711482586 0.2630032550 0.3658526583 0.5765590041 0.0833477878 0.4803346912 0.7324426144 0.0279596781 0.4430328483 0.6659641657 0.0961068742 0.4495916187 0.6639642847 0.0952664732 0.4523356471 0.6598795378 0.0965929985 0.3894142982 0.1711519868 0.4216737833 0.3343290349 0.0835968412 0.4717569345 0.1711621674 0.1840711448 0.3885516274 0.2163974277 0.1306979856 0.4587597205 0.1403157692 0.0872439469 0.4244191056 0.9285706025 0.4500576924 0.5810534338 0.2542665673 0.1549622563 0.0768239477 0.2905355177 0.1241712018 0.1289600301 0.3212520317 0.0796905617 0.1134315980 0.3626135356 0.1664949139 0.0989909084 0.3618115511 0.1720328619 0.1001073495 0.3650572362 0.1699175376 0.1024751047 0.3680818438 0.1736261922 0.1065974896 0.3291196753 0.2036809244 0.1572361198 0.3370096489 0.2091282319 0.1616365503 0.0617463243 0.1503433565 0.5058004761 0.1851541754 0.1663344567 0.5386195008 0.1499010693 0.2658914202 0.5712995507 0.1483448227 0.2522248893 0.4787911092 0.0408593858 0.9382737786 0.1632793303 0.1579120489 0.9508842031 0.1726205690 0.1685811517 0.9468865818 0.1683304804 0.4623075594 0.4848401791 0.1661080100 0.4577480442 0.4752221935 0.1662387065 0.5258210424 0.3954496486 0.2669789782 0.8807305032 0.5610000294 0.0484154850 0.8724847837 0.5657484770 0.0455648468 0.8788721308 0.5639565698 0.0436095177 0.9528858166 0.5564837782 0.0824619881 0.0848610326 0.9509142919 0.2972595408 0.0909302368 0.9527341107 0.2984105687 0.7712012569 0.0774324417 0.2849992018 0.7320444165 0.0975391018 0.3049634906 0.7245535298 0.0995461158 0.3031239405 0.8351612207 0.1252679650 0.3223784640 0.8416793747 0.1387116773 0.3278998396 0.7707173871 0.1908854315 0.2038464464 0.7747345516 0.1947184488 0.2066769455 0.3426259025 0.1902182322 0.5344572430 0.3550211951 0.1906350276 0.5362007458 0.4139991030 0.2829445745 0.5664121630 0.9549002296 0.6061798601 0.3610199630 0.8663819611 0.6117987047 0.4001121104 0.8999167131 0.4790678657 0.3659216252 0.9022697650 0.4738062303 0.3628356838 0.8960220517 0.4718839431 0.3635562890 0.9027216079 0.3807539898 0.2926227602 0.8058064545 0.0773904314 0.5900193776 0.3432506911 0.9113997343 0.0686958326 0.3482560307 0.9041869470 0.0728548217 0.2973773555 0.8399039737 0.0897857856 0.2988438131 0.8343470015 0.0890977088 0.8006523162 0.6605801691 0.3595343454 0.6844023322 0.6155007726 0.3399599829 0.6751674081 0.6201203767 0.3384223985 0.1505749086 0.9040891313 0.4534406500 0.1568603178 0.9069180870 0.4543829131 0.1183439062 0.9135208937 0.2299885122 0.1206151413 0.9131855416 0.2376251078 0.2538579291 0.3186001831 0.1147663284 0.2556207093 0.3240385367 0.1154065297 0.2607367523 0.3190387165 0.1151259505 0.2621693674 0.3245769085 0.1156872105 0.2673289361 0.3190361229 0.1154431884 0.2631783252 0.3301130794 0.1161660182 0.2685368802 0.3247187136 0.1158617673 0.3468126910 0.2670679189 0.0577853061 0.2798051169 0.4118682334 0.0597694237 0.1971453679 0.4195477422 0.3309925449 0.3175369490 0.4047896300
[...]
      <PointData Scalars="overlap">
        <DataArray type="Float32" Name="overlap" format="ascii">
 0.0002255066 0.0000176357 0.0002059441 0.0000273125 0.0000867326 0.0000335744 0.0000068706 0.0000518170 0.0002480293 0.0002509788 0.0001092202 0.0000488611 0.0000731341 0.0004926381 0.0000274169 0.0002316091 0.0000931227 0.0000060055 0.0000061531 0.0001281163 0.0000225252 0.0000493886 0.0000312320 0.0000300119 0.0000237507 0.0000096466 0.0001205907 0.0000835029 0.0001927796 0.0001199725 0.0000301208 0.0000289525 0.0000076581 0.0000869359 0.0002831494 0.0000288372 0.0002001796 0.0000835426 0.0000471395 0.0000981880 0.0001040940 0.0001685733 0.0000240747 0.0000127329 0.0001836889 0.0000525687 0.0000014856 0.0000530626 0.0001663284 0.0000603962 0.0000792646 0.0002215573 0.0000634351 0.0000342782 0.0000158952 0.0000083584 0.0000553253 0.0002891659 0.0001526452 0.0000511972 0.0001175696 0.0000172103 0.0000946086 0.0000953389 0.0000257611 0.0003203183 0.0000196279 0.0000905851 0.0000905202 0.0000191332 0.0000292898 0.0000609632 0.0000073179 0.0000862679 0.0000185017 0.0000016200 0.0000080398 0.0000088142 0.0000385860 0.0001861422 0.0000088603 0.0000307853 0.0002619846 0.0001150681 0.0000370912 0.0001254014 0.0000099847 0.0000137232 0.0000040381 0.0000160203 0.0000165764 0.0000397048 0.0000071109 0.0000395404 0.0000271000 0.0001011895 0.0001229424 0.0000461796 0.0000056405 0.0000081101 0.0000276569 0.0000246404 0.0000823630 0.0000446748 0.0000528674 0.0000485874 0.0000602845 0.0000762408 0.0000621732 0.0000974789 0.0000384347 0.0000569272 0.0000136927 0.0001104353 0.0000157742 0.0000254737 0.0001252107 0.0001385110 0.0001235518 0.0000801292 0.0001384866 0.0000159158 0.0000304679 0.0000370183 0.0000326836 0.0000591480 0.0000283785 0.0000085784 0.0000406186 0.0001086171 0.0000463749 0.0000186441 0.0000024512 0.0000397694 0.0000015811 0.0000123377 0.0000049047 0.0000335437 0.0000388473 0.0000606095 0.0000185372 0.0000169639 0.0000081400 0.0000066658 0.0000121319 0.0000222245 0.0000203905 0.0000126978 0.0000105319 0.0000260096 0.0000088388 0.0001701740 0.0000142408 0.0000456119 0.0000109730 0.0000461532 0.0001710352 0.0000239998 0.0001047087 0.0002023314 0.0000361177 0.0000388785 0.0001534187 0.0000032187 0.0000396844 0.0002880334 0.0000076507 0.0000182502 0.0000145181 0.0000432829 0.0000043768 0.0000132028 0.0000081075 0.0000748709 0.0000376492 0.0000596979 0.0000612769 0.0000358172 0.0000605440 0.0000171575 0.0000350852 0.0000001377 0.0000569656 0.0000125676 0.0000174372 0.0000518064 0.0000189705 0.0000527736 0.0000300840 0.0000299833 0.0000204496 0.0000079362 0.0000286861 0.0000113181 0.0000229264 0.0000147113 0.0000044741 0.0000260619 0.0000157053 0.0000056831 0.0000675219 0.0000368200 0.0000021582 0.0000127235 0.0000078410 0.0000400836 0.0000105518 0.0000492572 0.0000639645 0.0000373969 0.0002482971 0.0000717599 0.0000078788 0.0000103746 0.0000072480 0.0000071510 0.0000116311 0.0000367480 0.0000338254 0.0000537929 0.0000649512 0.0000026482 0.0000081120 0.0000883105 0.0000310457 0.0000607585 0.0000853776 0.0000025599 0.0000075037 0.0000557173 0.0000900840 0.0000004531 0.0000286956 0.0000798093 0.0001171232 0.0003507957 0.0003215400 0.0000396990 0.0000255568 0.0001376607 0.0001623591 0.0000230136 0.0000389421 0.0000070176 0.0000153317 0.0000604152 0.0000176907 0.0000217984 0.0000120868 0.0000311139 0.0000745054 0.0000534821 0.0000057867 0.0000328911 0.0000231428 0.0000209484 0.0000334690 0.0000189483 0.0000233620 0.0000275079 0.0000619741 0.0000031299 0.0000057141 0.0000214688 0.0000013426 0.0000081969 0.0000690481 0.0002011702 0.0001005559 0.0000706212 0.0000618044 0.0000254583 0.0000535023 0.0000845793 0.0000196930 0.0000506404 0.0000230052 0.0001329009 0.0000053900 0.0000218344 0.0000399152 0.0000061598 0.0000000234 0.0000136630 0.0000074908 0.0000123046 0.0000692426 0.0000457439 0.0000088106 0.0000061766 0.0000204267 0.0000508961 0.0000421252 0.0000041942 0.0000223489 0.0000264691 0.0000096826 0.0000019415 0.0000134343 0.0000581541 0.0001164001 0.0000069961 0.0000207713 0.0000301182 0.0000081392 0.0000235459 0.0000218732 0.0000728977 0.0000743924 0.0000795241 0.0000089716 0.0000790958 0.0000033526 0.0000338234 0.0000163125 0.0000037873 0.0000088766 0.0000220970 0.0000323089 0.0000315004 0.0000289696 0.0000208810 0.0000060441 0.0000219107 0.0000136790 0.0000218075 0.0000041145 0.0000588312 0.0000081075 0.0000050846 0.0000113543 0.0000606873 0.0000876206 0.0000141470 0.0000074009 0.0000051352 0.0000503579 0.0000601887 0.0000343301 0.0000376657 0.0000593452 0.0000512622 0.0000147271 0.0000057868 0.0000105920 0.0000042284 0.0000067896 0.0000083523 0.0000097807 0.0000055149 0.0000459241 0.0000166956 0.0000077057 0.0000327477 0.0000234243 0.0000008441 0.0000054788 0.0000595301 0.0000461757 0.0000196567 0.0000226450 0.0000418958 0.0000146923 0.0000080222 0.0000069276 0.0000338312 0.0000269789 0.0000104914 0.0000220846 0.0000404565 0.0000195166 0.0000139592 0.0000138984 0.0000066657 0.0000151854 0.0000079700 0.0000101280 0.0000158058 0.0000149626 0.0000045816 0.0000050171 0.0000516738 0.0000116216 0.0000607914 0.0000296736 0.0000319718 0.0000085874 0.0000188601 0.0000047079 0.0000028011 0.0000038069 0.0000652041 0.0000062514 0.0000314095 0.0000108063 0.0000234997 0.0000129907 0.0000245872 0.0001358399
        </DataArray>
        <DataArray type="Float32" Name="contact normal" NumberOfComponents="3" format="ascii">
 0.9747530410 -0.1893277231 -0.1183702765 0.1555838481 0.9312611239 0.3294637845 -0.0006370031 0.6164499492 -0.7873938369 -0.2103101794 0.7157900980 -0.6658935080 0.1103522629 -0.0480206978 -0.9927317818 0.2338296979 -0.1107036618 -0.9659546426 0.5992133969 -0.7720002293 -0.2120352586 -0.3785369075 0.6351393277 -0.6732814004 -0.3288795485 0.6782703627 -0.6571054388 -0.1641731253 -0.9501182191 -0.2651840016 -0.8558115131 0.4668464060 0.2228027990 -0.1400008996 -0.4491024281 0.8824436283 -0.1479967778 -0.4748775252 0.8675184666 -0.1169557258 -0.3830503606 0.9162935007 -0.0083274580 0.0626900105 -0.9979983046 0.0267980539 -0.0943863866 -0.9951748964 -0.8319803965 -0.0603907481 0.5515084563 -0.4683986536 0.3948381349 -0.7903831656 -0.3784773112 -0.4904440737 -0.7849965194 0.4266958084 -0.1496581144 0.8919266427 0.4063699207 -0.1798403224 0.8958353342 -0.6620602243 -0.1481317081 -0.7346654045 0.5876510739 -0.7239457335 0.3613430369 -0.6340737724 -0.2069738746 -0.7450585657 -0.0676218698 -0.3232584513 -0.9438915491 -0.7624902275 0.1937298012 -0.6173146823 0.3124968858 -0.0294140530 0.9494632746 -0.7342309239 -0.5295641790 0.4248137599 -0.7988458754 -0.6011035994 0.0227975910 -0.0013724534 -0.9554456945 0.2951637532 0.3770191191 0.7929072982 0.4787009508 0.3335809045 -0.6196446903 -0.7104676191 0.7209783560 0.5217160039 -0.4560730440 0.7537164823 0.4852939457 -0.4431718070 0.2852191647 0.6836313526 -0.6717873188 -0.4732860593 -0.4351832069 -0.7659085340 0.2186424914 -0.1884126324 -0.9574425001 -0.6235794206 0.7261400801 -0.2896019515 -0.5201709382 0.6631018650 0.5382546904 -0.1222946710 -0.0632400329 -0.9904770122 -0.3277455057 0.7301524334 0.5995500875 -0.7229380486 0.6861788101 0.0807416776 0.4062218366 -0.7683139379 -0.4946488778 0.4402993901 -0.7260701950 -0.5281652383 0.1714039481 0.2531770532 0.9521145237 -0.4363233382 -0.6609569175 0.6105390223 -0.9456346430 -0.3248603863 -0.0155193901 0.6139357344 -0.7892953039 0.0097896499 0.5989279534 -0.8008027394 0.0005284022 0.5472241456 0.8316347308 0.0944955505 0.4998134072 0.7781904833 -0.3802711265 0.0644271685 -0.3623450163 0.9298146208 0.7572552205 -0.0105197582 0.6530343527 0.1054389702 0.2946154054 0.9497812308 -0.1808915748 0.8143154033 -0.5515148794 -0.1033737349 0.6607682209 -0.7434374414 -0.0956919788 0.2005361730 -0.9750016864 -0.2508182095 0.5934759795 0.7647721801 0.4793130151 -0.4879048228 -0.7295258168 0.2611732382 -0.8734907951 0.4108556566 -0.4050144521 0.2950858025 -0.8653829573 -0.5610564523 0.6174381394 -0.5513490739 0.6796960107 -0.6364693352 -0.3645821147 0.1152608833 -0.2602489435 -0.9586372704 0.2785672726 -0.2555597637 -0.9257912733 -0.1151247211 -0.6947442685 0.7099835914 -0.1319883886 -0.1363948052 -0.9818225514 0.1889875109 -0.3259854663 0.9262921766 0.1771333535 -0.3355298282 0.9252261937 -0.3539246626 0.6917213601 -0.6294909795 -0.5815533286 -0.3308853561 0.7431760270 -0.6850154167 -0.6446720277 0.3393403242 -0.3519553488 0.0410011807 -0.9351183538 0.2481506856 0.1400586492 -0.9585430674 0.6234566109 0.3239979971 -0.7115666885 0.9444686964 -0.0566726120 0.3236774577 0.9482883413 0.0855583785 0.3056615541 -0.4734754300 0.6020746280 -0.6429052493 -0.5584259528 0.4656565435 0.6865307267 -0.4312484873 0.6832501342 0.5892317000 0.1343173813 0.8425348624 -0.5216261561 -0.6365625651 -0.7535035930 0.1643789405 0.0926934603 -0.3335338192 0.9381700879 0.0489929641 -0.2190276001 0.9744878654 0.3162999583 0.5395960411 -0.7802502475 0.7737818096 0.4542842961 0.4414606319 0.3336699267 0.5760526741 -0.7462088827 0.2731920840 0.6214727473 -0.7342599741 0.8864813687 0.4479886593 -0.1160040688 -0.3028372991 -0.8435988261 -0.4434304804 -0.2974542464 0.9482584365 0.1110266139 -0.3437156036 0.8246735528 0.4491916240 -0.8803490978 -0.1147575649 -0.4602349046 -0.2751888904 -0.8528886815 -0.4436800329 -0.0722182665 -0.8079364572 -0.5848274986 -0.2014317731 0.9574070502 0.2068743120 -0.5934968877 0.7299742018 0.3389677108 -0.3922070188 -0.5327758818 0.7498823336 0.3396782678 0.5385622677 -0.7710832369 0.3863046617 0.5406352388 -0.7473166979 0.3396634981 0.5385613861 -0.7710903588 0.3396595229 0.5385611487 -0.7710922757 0.1126294611 -0.4601082535 0.8806900701 0.1108365059 -0.4528117747 0.8846902089 -0.0837976901 -0.9413524459 -0.3268539732 0.7067004807 -0.6148218389 -0.3500978963 0.4599476808 -0.3548468192 -0.8139606046 -0.2235137757 0.1352086469 0.9652772730 -0.2231867773 0.1348030902 0.9654096485 -0.2230472378 0.1346304250 0.9654659903 -0.2232337821 0.1348613799 0.9653906394 -0.2225824756 0.1340537187 0.9656534793 -0.2236744597 0.1354079425 0.9652121141 -0.2227754848 0.1342933657 0.9655756704 -0.2224725034 0.1339173586 0.9656977406 -0.1802152742 0.0818565826 0.9802152594 -0.2226810342 0.1341872643 0.9656122074 -0.2226657886 0.1344204158 0.9655832944 -0.2230790887 0.1349997946 0.9654070518 0.1669329391 -0.3145195412 -0.9344575175 -0.2215249381 0.1354795843 0.9656976670 0.2534603953 -0.2169911718 -0.9426943616 0.2505256033 -0.2101699596 -0.9450214337 0.4823412722 -0.3851751015 -0.7867572932 0.7374701147 0.4353365972 0.5163524737 0.4636602294 0.3371343746 -0.8193653673 0.8230684961 -0.5670022616 -0.0326601598 0.2197695996 -0.1326080513 -0.9664969880 0.2253245011 -0.1300587482 -0.9655638721 0.2248711658 -0.1264253479 -0.9661519499 0.2037493727 -0.0979241455 -0.9741134712 0.2245759132 -0.1254526139 -0.9663474017 0.1756656585 -0.7374339729 0.6521753691 0.1958976373 0.1959942691 0.9608383642 -0.0155867229 0.4234284674 -0.9057954444 -0.0707426353 0.3607668046 -0.9299692427 -0.1004639227 0.3256039637 -0.9401537422 -0.0743340135 0.1549487135 -0.9851219978 -0.3376607728 0.8585554861 0.3858337462 0.1560651062 -0.5231819073 0.8378092709 -0.3066404330 -0.9367076090 -0.1689689325 0.9259376768 0.1042891481 -0.3629920002 0.5340504733 0.5979805606 0.5976699265 -0.6750095214 -0.6277691490 -0.3876442204 -0.9195189496 0.3290625119 -0.2149482837 0.0689800419 -0.6885755482 0.7218763525 0.0714440847 -0.6715841096 0.7374757802 0.0633478856 -0.3691965741 0.9271898053 0.4348643777 0.8794849304 -0.1933888056 -0.3196932871 -0.5168043854 -0.7941721661 0.2726980352 0.5234735149 -0.8072244178 -0.0187410647 0.0079253210 0.9997929595 -0.0187509725 0.0079555900 0.9997925333 0.0753984192 -0.0381820316 0.9964222051 0.2195139520 -0.5921876918 -0.7753240371 -0.1204671348 0.3287101580 -0.9367162332 -0.1204803181 0.3287210234 -0.9367107247 0.2194854013 -0.5919997293 -0.7754756470 -0.1204919862 0.3287306396 -0.9367058492 0.1357517929 -0.0261291620 0.9903982621 0.2192750325 -0.5917336364 -0.7757382056 0.2181246814 -0.5917946809 -0.7760159013 -0.3181028663 -0.8153442265 0.4837606420 -0.2059581216 0.1752039678 0.9627485766 -0.8647668595 0.4792027595 -0.1501432450 -0.0545682336 0.3320543357 0.9416805329 -0.6879601269 0.4288590812 -0.5854833493 -0.0387887828 -0.7615480548 -0.6469466674 0.1346568609 -0.2781319226 -0.9510573923 0.6640586137 0.3246357146 -0.6735263992 -0.2386505534 -0.2963439806 0.9247843849 -0.1922920291 -0.3520475618 -0.9160165336 -0.1771532213 -0.3510735362 -0.9194368430 -0.1801567972 -0.3565814691 -0.9167296135 -0.8774168645 0.4309631476 0.2107377784 -0.5001088116 0.4190655454 -0.7578095046 0.5889300897 -0.5446893283 -0.5970551776 0.2173410425 -0.1597627452 -0.9629323634 0.9732619805 0.2296940127 0.0013333682 -0.6193027104 0.5275712371 -0.5814918251 0.9097897635 -0.4077873894 0.0774082123 0.6530767453 0.0527522780 -0.7554521572 0.1091653722 0.9771502654 0.1823740123 -0.6847329312 -0.2364403995 0.6893741730 -0.6894330265 -0.2314097581 0.6863902868 -0.6822165850 -0.2397659351 0.6907190655 -0.6643683540 -0.2351532917 0.7094488140 0.4877531221 -0.4803158721 -0.7289674580 0.7528407360 -0.6492562089 -0.1081536011 0.0332308311 0.4261988219 0.9040189578 -0.6547063726 0.4062379162 0.6374404451 -0.0725067548 -0.4846460312 -0.8717000602 -0.5033486925 -0.6987179846 0.5083633265 0.3390243549 0.2884380013 -0.8954697126 -0.2373902686 0.0128349174 -0.9713295657 -0.2615775405 -0.0587872523 -0.9633904968 0.7522949687 0.2694432554 0.6012092914 0.1439891821 -0.6094802926 0.7796158595 -0.4401091155 0.8365800202 0.3262481207 0.2696942095 0.7976556997 0.5394538146 0.2716256928 0.8386193321 0.4721621532 0.2090915865 0.6355671285 -0.7431925279 -0.3845926010 0.7536611958 -0.5329946840 -0.2919898942 0.6684311283 0.6840626641 -0.2519041099 0.6666704023 0.7014947570 -0.1773006957 0.9573721651 0.2280416647 0.3002279048 0.5922486138 -0.7477330972 0.2806564850 0.5827407954 -0.7626566088 -0.2984567829 0.4463290662 -0.8436313848 -0.3000586806 0.4872078714 -0.8201178441 -0.1923616634 -0.5414404349 0.8184370751 -0.1957651713 -0.5312686248 0.8242752247 -0.4402986637 0.6284652633 -0.6412242194 0.0843767887 0.9896481180 0.1160911716 -0.6559095590 -0.6631201016 0.3606305331 -0.6477569651 -0.7391247165 -0.1846769280 0.6216181171 -0.6940331971 -0.3631925630 -0.4377316144 0.6553853688 -0.6155168984 -0.1216849336 0.3523787598 -0.9279127042 -0.2329798482 0.2568482814 -0.9379495459 -0.4786317147 0.7628186245 -0.4347636459 -0.1736963639 0.6566954402 0.7338805571 -0.7734327351 -0.6004141065 -0.2032355901 -0.7640863298 -0.6230793312 -0.1671652703 0.2986766694 0.2188542604 -0.9289214498 0.2974139801 0.2166313826 -0.9298471748 -0.2439411162 0.3579183804 -0.9013252270 0.3978234832 0.4542090416 -0.7971390235 0.3423573836 0.4963665607 -0.7977541346 -0.3679634536 0.7958122957 0.4809217054 -0.3649450814 0.8040914124 0.4693102258 -0.8854918316 0.3731741710 0.2768487931 -0.8869873822 0.3678072922 0.2792331995 0.0322117974 0.0956200654 -0.9948965792 0.0299118648 0.0983216996 -0.9947050436 0.0682012967 0.0531605336 -0.9962542551 0.0336784058 0.0939355810 -0.9950084782 0.0706318414 0.0502694335 -0.9962349758 0.0315080238 0.0964929125 -0.9948348417 0.0697402777 0.0513327415 -0.9962435663 -0.9735252457 0.2172953087 0.0709319728 -0.4238628185 -0.7489800564 -0.5092830120 0.4890337939 -0.6031945199 0.6300812008 0.0011455058 0.0684617376 -0.9976530851 0.1759342416 -0.2961218519 -0.9388072174 0.5084272635 -0.3526520343 -0.7855814792 0.1803346101 -0.9835924923 -0.0050237018 0.9711445059 -0.0971690049 -0.2177992956 -0.2651236132 -0.9614090399 0.0734991683 -0.2908710408 -0.5680905719 0.7698487772 0.6003624215 -0.1235830880 -0.7901216256 0.4877594287 0.4212416681 0.7646216037 -0.0679846790 -0.9155828983 -0.3963408126 -0.1218285064 0.3804246434 -0.9167523688 0.3198448455 -0.2090858432 0.9241116734 -0.6040741057 -0.0347733703 -0.7961691325 -0.2391578814 -0.6359422677 0.7337444650 -0.2315472452 -0.6370182214 0.7352507456 0.8045591326 -0.5925243484 0.0399937339 0.5654883373 -0.0073047469 0.8247239423 0.0996563554 0.7561016629 0.6468221442 -0.1534896767 0.6421910862 -0.7510203246 0.7465825207 0.1815157956 -0.6400519945 0.1414915145 -0.5278196262 -0.8374882647 -0.6001490437 -0.5560401458 -0.5750134621 -0.2655357606 0.5367678610 -0.8008564311 -0.8479762371 -0.3158366584 -0.4256565593 -0.7710760613 -0.1248568297 -0.6243816780 0.3590316645 0.2544336168 -0.8979753886 0.3518005543 0.2536801265 -0.9010453726 0.3589466348 0.2544587382 -0.8980022627 0.4646809549 -0.0593544068 0.8834866522 -0.0936923496 -0.1858402484 -0.9781028298 -0.0848723607 -0.1981201988 -0.9764963232 -0.1138921285 -0.6161849258 -0.7793232450 0.0886081924 0.1653489681 0.9822465612 0.7157381679 -0.2994269635 -0.6309218403 0.8781700605 0.0218713931 0.4778482887 0.4082011448 0.9091287301 -0.0828056608 0.9197891463 -0.1472294443 -0.3637463636 0.4277880011 0.5480300189 -0.7187910159 0.4394533670 0.5374448741 -0.7197456116 0.4455995533 0.4935941179 -0.7468640337 -0.0485449261 -0.6506542761 0.7578208252 -0.0481431890 -0.6506590180 0.7578423818 -0.0497856728 -0.6508244757 0.7575941451 -0.0495877504 -0.6508279967 0.7576041009 -0.0496799388 -0.6508528851 0.7575766797 0.3639449201 -0.0156464998 -0.9312890433 0.9432759670 0.2503102956 -0.2181174133 -0.4285951803 0.5268652805 0.7339748957 -0.4289862084 0.5264396380 0.7340518650 -0.4345495110 0.5250362975 0.7317811209 -0.7262378611 0.3025528664 0.6172846444 -0.0362848070 0.2405672980 -0.9699540133 0.0041070403 0.2892672345 -0.9572395726 0.0163297813 0.3096358562 -0.9507149808 0.2013662523 0.3973581510 -0.8952977897 0.1078054905 0.8494493671 -0.5165401717 -0.3693038665 -0.1432354483 -0.9182038230 -0.2700026285 0.0784258861 -0.9596603363 -0.3530753204 -0.2886783345 0.8899453002 -0.3215971348 -0.9253117584 -0.2009314127 0.2932604007 -0.5837391188 -0.7571307539 -0.0298839191 -0.6451803324 -0.7634456694 0.2668532048 0.3719861731 -0.8890532347 0.3191376986 0.1144357300 -0.9407739330 -0.3964488477 0.0135195957 -0.9179572603 -0.3971982692 0.0123117186 -0.9176502365 -0.3732429630 0.0502410890 -0.9263722381 -0.3734605392 0.0499496326 -0.9263003076 0.1842681004 -0.3894681890 0.9024188589 -0.2694095677 0.0358326602 -0.9623588236 -0.2120279827 0.0192412792 -0.9770741567 -0.0860866714 -0.1622174278 0.9829926709 0.6306767371 -0.6959767254 -0.3433121771 0.6344051189 -0.6933211365 -0.3418127363 -0.2452309605 0.8945725695 -0.3736331008 -0.4035478175 0.9127986543 0.0628313270 -0.5502972362 -0.7400361942 0.3866773631 0.1735296730 0.3615604527 -0.9160575810 0.1744372399 0.3463866072 -0.9217309627 0.3688250123 -0.7351870544 -0.5687425650 -0.4895783747 -0.5444951098 -0.6810565985 0.0874897360 0.4826701964 0.8714212687 0.0729888970 0.4577537526 0.8860779440 0.2545562977 0.7718975367 -0.5825592537 0.2177744771 0.8018602066 -0.5564121550 -0.1614418104 -0.9838677324 0.0770767600 -0.0928261160 0.9011157841 0.4235252719 -0.4452185152 -0.8639973113 -0.2351363854 0.7007713328 -0.1018154578 0.7060829637 0.7780977814 -0.0149376665 0.6279655315 -0.1273351863 -0.6337156637 0.7630138976 -0.1228227683 -0.6298722482 0.7669260189 -0.1273038869 -0.6337406670 0.7629983535 -0.1227925105 -0.6299715798 0.7668492734 -0.1228494870 -0.6300194468 0.7668008217 -0.0929483981 -0.6040505750 0.7915071055 -0.1219473067 -0.6310521132 0.7660953497 -0.0934905120 -0.6037169741 0.7916977576 -0.0933690523 -0.6036214725 0.7917849064 -0.0310432570 0.6017000644 0.7981186307 0.5127369214 0.8092177720 -0.2868230237 0.9208303947 0.2509971792 0.2984489909 -0.0789070922 0.2649556759 -0.9610266180 -0.0744733816 0.2682195284 -0.9604748826 -0.0701499132 0.2713289348 -0.9599268716 0.3275018888 0.4936257750 -0.8056525970 0.6858585557 0.7189786295 0.1125511966 -0.1523922123 -0.6449751696 0.7488548887 -0.1524403486 -0.6449531470 0.7488640586 -0.1524538113 -0.6449508037 0.7488633362 -0.1524057088 -0.6449563215 0.7488683751 -0.1524363442 -0.6449528153 0.7488651594 -0.1524563138 -0.6449504938 0.7488630935 -0.1524530629 -0.6449508683 0.7488634329 -0.1523865521 -0.6449585274 0.7488703737 -0.1524015841 -0.6449567965 0.7488688055 0.0626517529 0.755243191