<?xml version="1.0"?>
<VTKFile type="UnstructuredGrid" version="0.1" byte_order="LittleEndian">
  <UnstructuredGrid>
    <FieldData>
      <DataArray type="Float32" Name="TIME"  NumberOfTuples="1" format="ascii"> 2.7500000000 </DataArray>
      <DataArray type="Int32"   Name="STEP"  NumberOfTuples="1" format="ascii"> 275000 </DataArray>
    </FieldData>
    <Piece NumberOfPoints="399" NumberOfCells="399">
      <Points>
        <DataArray type="Float32" NumberOfComponents="3" format="ascii">
 0.4248655484 0.2068246880 0.0759424427 0.5299834409 0.1286321099 0.0400904279 0.5050735132 0.1472901758 0.1825912653 0.6403308828 0.1082656866 0.1124593091 0.5396126502 0.3646961441 0.2039998193 0.5528627992 0.3591019156 0.2072256830 0.5678910397 0.4472838743 0.1939261343 0.7522016310 0.1787385249 0.1457372463 0.7585134142 0.1855910548 0.1501542881 0.6781372864 0.4551482770 0.1694651239 0.8496088880 0.2321586291 0.1150667167 0.7816292752 0.3733968578 0.0369721592 0.7953319070 0.3703138666 0.0373487113 0.8168261331 0.3857426266 0.0431746105 0.8042877736 0.3963501406 0.2240345449 0.8177016017 0.3880438041 0.2261930880 0.8970057953 0.3686623582 0.1723152390 0.7489574356 0.3245508167 0.6726860794 0.7715934503 0.2992913014 0.6582601794 0.7860261744 0.3639003629 0.5621491171 0.8677399841 0.6052391005 0.5111382586 0.9118152754 0.5556485752 0.5587191079 0.8933346894 0.6065785928 0.4947006655 0.9262235694 0.5446461876 0.5458334020 0.9417326529 0.3093622027 0.5254638587 0.9349240415 0.3343204704 0.5344009676 0.9466583383 0.4740628061 0.4508181451 0.2426831149 0.7997973171 0.0414073140 0.2550041463 0.8173384079 0.0914577128 0.0745409010 0.9091232551 0.1097898222 0.1543235258 0.7223189215 0.0815089218 0.0388481063 0.8885763780 0.1662299434 0.0554830533 0.8047835031 0.1553460028 0.0622452142 0.7985054344 0.1588802999 0.1716655198 0.7198406790 0.1453825038 0.1846701252 0.8263773624 0.1958310805 0.5696624302 0.7614148770 0.2455263909 0.6836953924 0.7584624947 0.2617669324 0.6518268347 0.7389198057 0.1620803847 0.7064493285 0.8129137976 0.2796421467 0.6573950330 0.7424562984 0.1621256490 0.6559148027 0.7439887588 0.1560625084 0.6050536173 0.8504641300 0.2446695573 0.6094905150 0.8548452335 0.2417830413 0.5207957886 0.7623147965 0.0984629904 0.7326498528 0.8581091879 0.2193678804 0.7273888308 0.8568454564 0.2066731117 0.5647755423 0.8549307304 0.1613306917 0.5655432691 0.8555394421 0.1539500248 0.1730885011 0.4807041406 0.3236686977 0.1676988982 0.4846853214 0.4415908854 0.1372093919 0.6603894018 0.2434463645 0.0843622050 0.6890419764 0.2636706573 0.1610017887 0.6613733345 0.2414219806 0.2576853816 0.4522142907 0.3447840782 0.2908217952 0.4616803896 0.4187193491 0.2909897238 0.5655086114 0.4523269778 0.3086337589 0.4589968049 0.2813295804 0.1182094404 0.7733035754 0.4080898175 0.2713212610 0.7854264663 0.2555500751 0.4240767062 0.5343439901 0.4164785652 0.4308573663 0.5455601540 0.4205633632 0.2460013630 0.8876085551 0.3715550049 0.3711245076 0.8402712662 0.4486924102 0.3884552279 0.8571705236 0.4473805489 0.4440477633 0.9114115525 0.2749301441 0.5616941395 0.7792369351 0.4616543443 0.7554626542 0.3393614229 0.5253663653 0.7491419443 0.3251155168 0.5221855696 0.7310410774 0.1923218741 0.5211150328 0.6605277308 0.0750026381 0.2089068813 0.6490925641 0.1078242057 0.2421733502 0.6082326628 0.1071841857 0.3161803935 0.5368084417 0.0942183429 0.3297710565 0.6497656338 0.8867032317 0.4452711565 0.6558265939 0.9007457840 0.3525093650 0.6572060675 0.9097063873 0.3464142378 0.7437349503 0.9446357201 0.5283420926 0.6975274896 0.9102992610 0.3310051795 0.7118964140 0.2412314037 0.2823327207 0.6923335689 0.1618247477 0.4376707530 0.7639621740 0.3793122059 0.3440277924 0.7707356466 0.3872244409 0.3523718689 0.5690851999 0.3189422431 0.3113872998 0.5335508731 0.2357767017 0.4478702727 0.4819226769 0.2672504661 0.3471223314 0.4709343347 0.3273642871 0.5039566350 0.4582433049 0.3355683008 0.5055481787 0.3861274099 0.4139787096 0.4441301578 0.5795569928 0.5972595973 0.5628761540 0.1272843069 0.2954913291 0.0794067981 0.1210214376 0.2920247609 0.0845403587 0.1781410047 0.3772351438 0.0528337488 0.1491846914 0.4388034570 0.0568119689 0.0950513579 0.4146544937 0.1045537461 0.2077577070 0.4386266744 0.0527650163 0.1964216043 0.4344277925 0.0567124142 0.2718649444 0.5419330432 0.0599519951 0.1116356291 0.4730188821 0.1348024749 0.1123444092 0.4827917258 0.1420328093 0.1047367869 0.4920105204 0.1450378470 0.0995446301 0.5073275133 0.1534447748 0.1196640347 0.6091634518 0.0768625201 0.1243079820 0.6141205410 0.0785432746 0.0731068879 0.6660879288 0.2039447381 0.0764850676 0.6738810561 0.1942211946 0.1368991202 0.3952862867 0.2410296769 0.2422127053 0.3041291672 0.2229839732 0.2365960318 0.2958152356 0.2228482114 0.2487063338 0.3044899907 0.2244115426 0.2293349460 0.2902094328 0.2219678518 0.2433826160 0.2948294883 0.2245370614 0.2197438876 0.2869285230 0.2202318148 0.2548627203 0.3066655973 0.2255142916 0.2368428105 0.2880813837 0.2239867716 0.2496207610 0.2953275420 0.2258873416 0.2609594771 0.3107896585 0.2263355915 0.2673061864 0.3172671171 0.2268941688 0.2743121537 0.3269065865 0.2271850286 0.0603276633 0.3238601870 0.2405522705 0.2818527891 0.3248940610 0.2291689762 0.2734193400 0.3270491267 0.3139736939 0.2819437606 0.3344280036 0.3145347031 0.0744053882 0.2508637050 0.2704876588 0.0724354047 0.1488450966 0.2300779304 0.1130150384 0.0685993378 0.2994138874 0.1289093019 0.0610869429 0.3107444211 0.2422523062 0.1318707826 0.3407277581 0.2508568635 0.1370581144 0.3419976545 0.2667428162 0.1556168175 0.3433605049 0.2741719930 0.1652462053 0.3438923586 0.2824431464 0.1696906696 0.3451599972 0.8679190482 0.1866462884 0.4388058157 0.8336817557 0.1057840455 0.4125780042 0.7587866603 0.1533892342 0.5977302750 0.7548320906 0.1422524494 0.5935171974 0.7470174377 0.1331130843 0.5912840438 0.2973151254 0.2801247298 0.5031617194 0.2898191715 0.2700263734 0.4140876952 0.2534996374 0.3450415001 0.3698616442 0.3102798862 0.3803416311 0.4286192604 0.6312909935 0.7388016742 0.5144411534 0.6934316607 0.6467628257 0.3835488359 0.7179986363 0.8411220820 0.5228734443 0.7601121717 0.7119190722 0.4431566597 0.7150659816 0.7763954191 0.3773386668 0.7224898643 0.7765642169 0.3764750759 0.7217469620 0.7830361494 0.3798933727 0.5481875277 0.5178807924 0.2034163130 0.6016765712 0.5231813208 0.2544417294 0.6024644747 0.5427583779 0.2596852657 0.6200426890 0.5473501601 0.0836202154 0.6262669342 0.5623852118 0.0836985687 0.6399058924 0.5592323033 0.0832585407 0.7413562364 0.6640243141 0.2510465307 0.8187170575 0.4748232928 0.2427176352 0.8265612913 0.4850377308 0.2453601381 0.7524089437 0.6663454252 0.2524253929 0.8342689638 0.4949636133 0.2478040692 0.7588447312 0.7526336344 0.1137492073 0.7644302154 0.6690099349 0.2538315113 0.7782254871 0.6723027375 0.2552949218 0.8026210216 0.7665638125 0.1615331271 0.8794301183 0.6238427044 0.0942653627 0.9217425477 0.5592529763 0.1912930268 0.8981094738 0.6354669918 0.0942519450 0.9265937490 0.6781189763 0.2684876820 0.9125146503 0.7262484493 0.2334555149 0.9396902551 0.6711479244 0.2630026144 0.3658527846 0.5765591277 0.0833479328 0.4803343271 0.7324428636 0.0279593229 0.4430327211 0.6659644464 0.0961066937 0.4495915010 0.6639645890 0.0952663137 0.4523355437 0.6598798563 0.0965928573 0.3894140245 0.1711511649 0.4216738780 0.3343282372 0.0835962218 0.4717566831 0.1711619258 0.1840715925 0.3885519655 0.2163969338 0.1306979848 0.4587598962 0.1403151787 0.0872445023 0.4244191758 0.9285708095 0.4500576925 0.5810533677 0.2542668148 0.1549618506 0.0768238855 0.2905359330 0.1241705632 0.1289597592 0.3212528967 0.0796902851 0.1134308898 0.3626136424 0.1664952287 0.0989912317 0.3618116556 0.1720331749 0.1001076788 0.3650573459 0.1699178529 0.1024754276 0.3680819540 0.1736265068 0.1065978104 0.3291192985 0.2036803778 0.1572367932 0.3370092082 0.2091277104 0.1616372461 0.0617457081 0.1503444032 0.5058007730 0.1851537206 0.1663350037 0.5386196234 0.1499010683 0.2658921672 0.5712995381 0.1483445698 0.2522254475 0.4787912484 0.0408593431 0.9382740786 0.1632789926 0.1579119960 0.9508843767 0.1726206946 0.1685811007 0.9468867077 0.1683306374 0.4623076485 0.4848397217 0.1661077705 0.4577481633 0.4752217105 0.1662385226 0.5258214129 0.3954495656 0.2669789006 0.8807307272 0.5610001056 0.0484145862 0.8724850050 0.5657485516 0.0455639504 0.8788723838 0.5639567259 0.0436085856 0.9528858245 0.5564839860 0.0824615091 0.0848604600 0.9509140127 0.2972594762 0.0909296481 0.9527338654 0.2984105346 0.7712012253 0.0774325108 0.2849992058 0.7320443574 0.0975392451 0.3049633968 0.7245534699 0.0995462449 0.3031238419 0.8351611579 0.1252681950 0.3223782932 0.8416793162 0.1387119219 0.3278996309 0.7707174571 0.1908850891 0.2038459958 0.7747346183 0.1947181158 0.2066764875 0.3426239760 0.1902189786 0.5344561361 0.3550193112 0.1906357112 0.5361994571 0.4139979066 0.2829448796 0.5664105333 0.9548995933 0.6061800098 0.3610196200 0.8663812113 0.6117987576 0.4001115738 0.8999163127 0.4790679091 0.3659212063 0.9022693654 0.4738062919 0.3628352860 0.8960216646 0.4718839926 0.3635559003 0.9027215322 0.3807540466 0.2926223411 0.8058070619 0.0773886330 0.5900195961 0.3432501874 0.9113996704 0.0686957405 0.3482555258 0.9041868811 0.0728547227 0.2973770736 0.8399037389 0.0897857847 0.2988435478 0.8343467699 0.0890977163 0.8006523610 0.6605799280 0.3595340892 0.6844023162 0.6155005222 0.3399598546 0.6751674038 0.6201201368 0.3384222476 0.1505746203 0.9040885889 0.4534406470 0.1568600382 0.9069175446 0.4543828801 0.1183436758 0.9135209126 0.2299884931 0.1206148919 0.9131855301 0.2376250931 0.2538582659 0.3185999431 0.1147661963 0.2556210461 0.3240382983 0.1154063853 0.2607370906 0.3190384737 0.1151258354 0.2621697044 0.3245766689 0.1156870793 0.2673292725 0.3190358803 0.1154430888 0.2631786614 0.3301128414 0.1161658725 0.2685372169 0.3247184720 0.1158616518 0.3468130320 0.2670675376 0.0577853043 0.2798054052 0.4118678359 0.0597691039 0.1971451499 0.4195474761 0.3309921119 0.3175366438 0.4047894135
[...]
      <PointData Scalars="overlap">
        <DataArray type="Float32" Name="overlap" format="ascii">
 0.0002254897 0.0000178668 0.0002058928 0.0000274245 0.0000868593 0.0000337115 0.0000067241 0.0000519420 0.0002481474 0.0002510174 0.0001094366 0.0000490361 0.0000733661 0.0004930488 0.0000276064 0.0002316942 0.0000932055 0.0000060239 0.0000061293 0.0001279101 0.0000224949 0.0000496660 0.0000312330 0.0000297288 0.0000237817 0.0000095462 0.0001204054 0.0000834918 0.0001927476 0.0001197779 0.0000303412 0.0000289890 0.0000076335 0.0000869549 0.0002833926 0.0000287714 0.0002008848 0.0000835576 0.0000471357 0.0000981094 0.0001040172 0.0001685141 0.0000239130 0.0000126322 0.0001840168 0.0000526798 0.0000015496 0.0000530686 0.0001664259 0.0000606372 0.0000792852 0.0002216482 0.0000634083 0.0000343741 0.0000156838 0.0000080451 0.0000545520 0.0002895572 0.0001521899 0.0000514134 0.0001178990 0.0000175554 0.0000945362 0.0000948103 0.0000255394 0.0003205645 0.0000197225 0.0000905246 0.0000902601 0.0000189889 0.0000295432 0.0000612792 0.0000073918 0.0000861404 0.0000187277 0.0000016541 0.0000080395 0.0000087596 0.0000385852 0.0001863833 0.0000089582 0.0000307304 0.0002621623 0.0001151545 0.0000365663 0.0001256597 0.0000100432 0.0000139385 0.0000036342 0.0000161356 0.0000166516 0.0000397433 0.0000071571 0.0000397213 0.0000270292 0.0001011861 0.0001230063 0.0000463727 0.0000056368 0.0000081292 0.0000276798 0.0000246856 0.0000825945 0.0000449333 0.0000527984 0.0000485577 0.0000603835 0.0000762526 0.0000621757 0.0000975232 0.0000384133 0.0000569671 0.0000136305 0.0001105064 0.0000157961 0.0000255442 0.0001253036 0.0001386213 0.0001236748 0.0000802462 0.0001386550 0.0000160964 0.0000306264 0.0000370209 0.0000328374 0.0000590944 0.0000284421 0.0000086088 0.0000406275 0.0001085445 0.0000462486 0.0000185111 0.0000023827 0.0000399150 0.0000016175 0.0000123367 0.0000049217 0.0000337538 0.0000386787 0.0000605709 0.0000183936 0.0000172022 0.0000080584 0.0000066053 0.0000122212 0.0000222401 0.0000205108 0.0000128087 0.0000107621 0.0000259150 0.0000088651 0.0001703425 0.0000143947 0.0000457854 0.0000110488 0.0000462436 0.0001711139 0.0000240682 0.0001047757 0.0002023834 0.0000361784 0.0000389313 0.0001533980 0.0000034595 0.0000395933 0.0002885769 0.0000076442 0.0000185492 0.0000144860 0.0000434430 0.0000043085 0.0000133384 0.0000081847 0.0000749190 0.0000375748 0.0000599939 0.0000613750 0.0000357439 0.0000608764 0.0000170624 0.0000350145 0.0000000651 0.0000568076 0.0000126253 0.0000173499 0.0000517433 0.0000187760 0.0000526136 0.0000299662 0.0000298341 0.0000203300 0.0000080873 0.0000289304 0.0000112375 0.0000229192 0.0000148001 0.0000044590 0.0000261228 0.0000157029 0.0000056803 0.0000675672 0.0000369557 0.0000022370 0.0000127960 0.0000078713 0.0000400868 0.0000104620 0.0000491379 0.0000640163 0.0000374095 0.0002484487 0.0000719243 0.0000079387 0.0000103705 0.0000073581 0.0000071954 0.0000115504 0.0000366515 0.0000337299 0.0000536480 0.0000649236 0.0000025221 0.0000080209 0.0000882941 0.0000310218 0.0000607224 0.0000852159 0.0000024586 0.0000074583 0.0000553439 0.0000898709 0.0000004805 0.0000286891 0.0000799298 0.0001172410 0.0003508729 0.0003216223 0.0000397384 0.0000256412 0.0001377039 0.0001622910 0.0000230799 0.0000392259 0.0000070311 0.0000152945 0.0000604776 0.0000176315 0.0000216307 0.0000119707 0.0000309612 0.0000743894 0.0000535083 0.0000057266 0.0000326014 0.0000232336 0.0000210088 0.0000334726 0.0000189236 0.0000234622 0.0000273452 0.0000620524 0.0000032470 0.0000056683 0.0000214915 0.0000013675 0.0000080046 0.0000690589 0.0002012142 0.0001006862 0.0000706754 0.0000618037 0.0000252783 0.0000537131 0.0000845703 0.0000195753 0.0000502532 0.0000230729 0.0001328912 0.0000053786 0.0000217877 0.0000399308 0.0000062187 0.0000001079 0.0000138327 0.0000075951 0.0000123788 0.0000692218 0.0000455866 0.0000089800 0.0000062084 0.0000203500 0.0000507367 0.0000419013 0.0000038922 0.0000223912 0.0000265230 0.0000097461 0.0000020041 0.0000134664 0.0000581637 0.0001164714 0.0000070440 0.0000207494 0.0000301244 0.0000081206 0.0000236270 0.0000219279 0.0000728664 0.0000742626 0.0000795257 0.0000088842 0.0000789719 0.0000033396 0.0000337276 0.0000161564 0.0000038831 0.0000087026 0.0000220188 0.0000321791 0.0000314403 0.0000289006 0.0000207758 0.0000060315 0.0000217510 0.0000137606 0.0000218429 0.0000042079 0.0000586438 0.0000080377 0.0000051394 0.0000113005 0.0000607009 0.0000876978 0.0000141271 0.0000073206 0.0000051527 0.0000503161 0.0000601846 0.0000342682 0.0000376988 0.0000593192 0.0000512712 0.0000146698 0.0000058160 0.0000107594 0.0000032874 0.0000079562 0.0000083525 0.0000097662 0.0000054546 0.0000459266 0.0000167072 0.0000077237 0.0000328043 0.0000234468 0.0000008942 0.0000055220 0.0000595556 0.0000462115 0.0000195195 0.0000226189 0.0000419133 0.0000146182 0.0000079569 0.0000069181 0.0000339544 0.0000269814 0.0000104463 0.0000221116 0.0000404366 0.0000195815 0.0000140688 0.0000139144 0.0000067273 0.0000151519 0.0000078568 0.0000101820 0.0000159367 0.0000149248 0.0000045826 0.0000051252 0.0000517020 0.0000115996 0.0000608704 0.0000298507 0.0000320039 0.0000081013 0.0000191104 0.0000048052 0.0000028177 0.0000037110 0.0000651946 0.0000062874 0.0000314748 0.0000105695 0.0000235229 0.0000128901 0.0000246594 0.0001359862
        </DataArray>
        <DataArray type="Float32" Name="contact normal" NumberOfComponents="3" format="ascii">
 0.9747513994 -0.1893342656 -0.1183733297 0.1555846314 0.9312638999 0.3294555678 -0.0006368631 0.6164531162 -0.7873913575 -0.2103087099 0.7157868388 -0.6658974756 0.1103503791 -0.0480216378 -0.9927319458 0.2338269812 -0.1107045533 -0.9659551981 0.5992143513 -0.7719997742 -0.2120342185 -0.3785329008 0.6351399022 -0.6732831111 -0.3288761676 0.6782705612 -0.6571069259 -0.1641751140 -0.9501167048 -0.2651881959 -0.8558106925 0.4668475832 0.2228034845 -0.1400044257 -0.4491000224 0.8824442932 -0.1480005253 -0.4748758270 0.8675187568 -0.1169588646 -0.3830467706 0.9162946008 -0.0083254810 0.0626893796 -0.9979983607 0.0268007143 -0.0943886363 -0.9951746113 -0.8319893254 -0.0603881667 0.5514952691 -0.4683943588 0.3948424559 -0.7903835523 -0.3784797691 -0.4904369222 -0.7849998024 0.4267020314 -0.1496458691 0.8919257202 0.4063761758 -0.1798402365 0.8958325140 -0.6620542468 -0.1481328066 -0.7346705697 0.5876484499 -0.7239461138 0.3613465422 -0.6340674569 -0.2069744838 -0.7450637712 -0.0676258296 -0.3232483621 -0.9438947206 -0.7624897737 0.1937365354 -0.6173131295 0.3125010536 -0.0294071720 0.9494621160 -0.7342284131 -0.5295661156 0.4248156854 -0.7988423762 -0.6011081251 0.0228008759 -0.0013755139 -0.9554438352 0.2951697576 0.3770179048 0.7929005464 0.4787130905 0.3335834974 -0.6196437611 -0.7104672122 0.7209764049 0.5217204433 -0.4560710500 0.7537147953 0.4852983998 -0.4431697989 0.2852264610 0.6836351376 -0.6717803693 -0.4732870873 -0.4351824490 -0.7659083294 0.2186340398 -0.1884036900 -0.9574461897 -0.6235793046 0.7261398658 -0.2896027384 -0.5201699657 0.6631002503 0.5382576194 -0.1222873466 -0.0632412314 -0.9904778400 -0.3277445134 0.7301518024 0.5995513985 -0.7229370241 0.6861793721 0.0807460741 0.4062212759 -0.7683172454 -0.4946442009 0.4402998493 -0.7260734249 -0.5281604154 0.1713972762 0.2531807323 0.9521147465 -0.4363245440 -0.6609588466 0.6105360722 -0.9456350299 -0.3248591218 -0.0155222797 0.6139343532 -0.7892962786 0.0097976764 0.5989271376 -0.8008033439 0.0005369135 0.5472316422 0.8316308607 0.0944861963 0.4998144805 0.7781868294 -0.3802771930 0.0644279100 -0.3623443833 0.9298148161 0.7572553277 -0.0105158903 0.6530342906 0.1054387694 0.2946225734 0.9497790296 -0.1808960004 0.8143203882 -0.5515060674 -0.1033711380 0.6607701382 -0.7434360983 -0.0956786531 0.2005357951 -0.9750030719 -0.2508156988 0.5934775772 0.7647717637 0.4793177414 -0.4878947691 -0.7295294354 0.2611745460 -0.8734968488 0.4108419545 -0.4050070507 0.2950852839 -0.8653865981 -0.5610511155 0.6174372357 -0.5513555167 0.6797031395 -0.6364600845 -0.3645849736 0.1152498599 -0.2602431856 -0.9586401589 0.2785566687 -0.2555554742 -0.9257956480 -0.1151243720 -0.6947459970 0.7099819565 -0.1319852290 -0.1363867061 -0.9818241012 0.1889876250 -0.3259835899 0.9262928137 0.1771335302 -0.3355279058 0.9252268570 -0.3539282023 0.6917247141 -0.6294853036 -0.5815516776 -0.3308815622 0.7431790081 -0.6850157908 -0.6446676497 0.3393478861 -0.3519547548 0.0410019579 -0.9351185433 0.2481558839 0.1400510183 -0.9585428366 0.6234494933 0.3240075476 -0.7115685760 0.9444674708 -0.0566703933 0.3236814223 0.9482870757 0.0855605162 0.3056648820 -0.4734758007 0.6020683111 -0.6429108919 -0.5584316008 0.4656560699 0.6865264538 -0.4312495038 0.6832510088 0.5892299418 0.1343169967 0.8425306599 -0.5216330430 -0.6365648971 -0.7535038439 0.1643687595 0.0926917540 -0.3335333464 0.9381704246 0.0489926900 -0.2190293680 0.9744874818 0.3163029175 0.5395896559 -0.7802534637 0.7737818823 0.4542833434 0.4414614848 0.3336813389 0.5760484009 -0.7462070784 0.2732034902 0.6214695801 -0.7342584109 0.8864829148 0.4479854792 -0.1160045352 -0.3028214296 -0.8435984370 -0.4434420581 -0.2974558545 0.9482585954 0.1110209483 -0.3437172307 0.8246743187 0.4491889729 -0.8803492449 -0.1147587571 -0.4602343258 -0.2751885376 -0.8528888614 -0.4436799059 -0.0722187924 -0.8079376280 -0.5848258162 -0.2014315394 0.9574075604 0.2068721784 -0.5934966939 0.7299750739 0.3389661721 -0.3922083834 -0.5327760884 0.7498814731 0.3396761965 0.5385610814 -0.7710849779 0.3863026242 0.5406341894 -0.7473185103 0.3396614273 0.5385601998 -0.7710920996 0.3396574523 0.5385599624 -0.7710940163 0.1126324034 -0.4601129454 0.8806872426 0.1108394433 -0.4528164696 0.8846874379 -0.0837932399 -0.9413516240 -0.3268574812 0.7067019898 -0.6148188063 -0.3501001758 0.4599449857 -0.3548507764 -0.8139604024 -0.2235174197 0.1352132778 0.9652757806 -0.2231904208 0.1348077166 0.9654081601 -0.2230508864 0.1346350559 0.9654645016 -0.2232374228 0.1348660033 0.9653891517 -0.2225861247 0.1340583445 0.9656519960 -0.2236780946 0.1354125641 0.9652106234 -0.2227791370 0.1342979977 0.9655741836 -0.2224761507 0.1339219808 0.9656962594 -0.1802192285 0.0818610719 0.9802141575 -0.2226846889 0.1341918984 0.9656107206 -0.2226694433 0.1344250526 0.9655818061 -0.2230827431 0.1350044371 0.9654055581 0.1669368095 -0.3145199993 -0.9344566719 -0.2215285723 0.1354842243 0.9656961824 0.2534595831 -0.2169916530 -0.9426944692 0.2505248078 -0.2101704816 -0.9450215285 0.4823429289 -0.3851708192 -0.7867583740 0.7374681441 0.4353401482 0.5163522943 0.4636538489 0.3371367394 -0.8193680048 0.8230731099 -0.5669955283 -0.0326607820 0.2197678555 -0.1326058929 -0.9664976807 0.2253227564 -0.1300565904 -0.9655645699 0.2248693882 -0.1264231113 -0.9661526562 0.2037477113 -0.0979217312 -0.9741140614 0.2245740943 -0.1254503115 -0.9663481234 0.1756700541 -0.7374365994 0.6521712152 0.1959021229 0.1959944988 0.9608374028 -0.0155822141 0.4234264549 -0.9057964627 -0.0707392083 0.3607656887 -0.9299699362 -0.1004611069 0.3256033244 -0.9401542645 -0.0743501060 0.1549543477 -0.9851198972 -0.3376532579 0.8585540760 0.3858434604 0.1560649093 -0.5231813792 0.8378096374 -0.3066440530 -0.9367061538 -0.1689704298 0.9259490591 0.1042934873 -0.3629617177 0.5340502600 0.5979808200 0.5976698577 -0.6750021290 -0.6277779499 -0.3876428400 -0.9195116526 0.3290725089 -0.2149641940 0.0689768451 -0.6885743543 0.7218777968 0.0714403918 -0.6715827003 0.7374774214 0.0633412823 -0.3691958855 0.9271905306 0.4348473905 0.8794949507 -0.1933814330 -0.3196961019 -0.5168109492 -0.7941667616 0.2727014634 0.5234708212 -0.8072250066 -0.0187402019 0.0079259951 0.9997929703 -0.0187501121 0.0079562655 0.9997925440 0.0753988701 -0.0381821626 0.9964221660 0.2195132697 -0.5921888179 -0.7753233702 -0.1204654487 0.3287097981 -0.9367165763 -0.1204786316 0.3287206632 -0.9367110680 0.2194847190 -0.5920008592 -0.7754749775 -0.1204902993 0.3287302790 -0.9367061927 0.1357421862 -0.0261283027 0.9903996015 0.2192743473 -0.5917347695 -0.7757375350 0.2181239785 -0.5917958098 -0.7760152379 -0.3181119729 -0.8153477095 0.4837487833 -0.2059653956 0.1751938735 0.9627488574 -0.8647708448 0.4791957193 -0.1501427606 -0.0545763404 0.3320451653 0.9416832967 -0.6879586698 0.4288640547 -0.5854814184 -0.0388142681 -0.7615406439 -0.6469538626 0.1346451070 -0.2781400420 -0.9510566819 0.6640602173 0.3246362606 -0.6735245549 -0.2386458792 -0.2963501451 0.9247836157 -0.1922849849 -0.3520508272 -0.9160167573 -0.1771462465 -0.3510768056 -0.9194369385 -0.1801497735 -0.3565846623 -0.9167297517 -0.8774187195 0.4309570546 0.2107425156 -0.5000990196 0.4190532656 -0.7578227571 0.5889329141 -0.5446859893 -0.5970554378 0.2172936028 -0.1597969635 -0.9629373919 0.9732654931 0.2296791591 0.0013281250 -0.6192958479 0.5275833368 -0.5814881559 0.9097895085 -0.4077876082 0.0774100567 0.6530741251 0.0527493644 -0.7554546259 0.1091858887 0.9771580240 0.1823201521 -0.6847309059 -0.2364303186 0.6893796421 -0.6894308739 -0.2313998070 0.6863958038 -0.6822144553 -0.2397559810 0.6907246242 -0.6643660297 -0.2351433186 0.7094542961 0.4877550242 -0.4803220592 -0.7289621086 0.7528402083 -0.6492581511 -0.1081456143 0.0332247003 0.4262026670 0.9040173704 -0.6547277843 0.4061703466 0.6374615110 -0.0724570581 -0.4846424998 -0.8717061558 -0.5033488153 -0.6987206000 0.5083596103 0.3390272437 0.2884419160 -0.8954673580 -0.2373909109 0.0128364991 -0.9713293879 -0.2615781469 -0.0587857232 -0.9633904254 0.7522995594 0.2694379569 0.6012059218 0.1439885020 -0.6094777208 0.7796179956 -0.4401016021 0.8365819634 0.3262532733 0.2696938767 0.7976559350 0.5394536330 0.2716254523 0.8386188192 0.4721632025 0.2090933845 0.6355599135 -0.7431981922 -0.3845992768 0.7536569118 -0.5329959246 -0.2919935452 0.6684286372 0.6840635398 -0.2519077627 0.6666680170 0.7014957122 -0.1773005546 0.9573715175 0.2280444930 0.3002255704 0.5922496235 -0.7477332348 0.2806540694 0.5827416853 -0.7626568177 -0.2984608942 0.4463284986 -0.8436302306 -0.3000627175 0.4872073230 -0.8201166929 -0.1923609879 -0.5414409028 0.8184369243 -0.1957643786 -0.5312693091 0.8242749719 -0.4402887222 0.6284585863 -0.6412375896 0.0843763431 0.9896498420 0.1160767974 -0.6559143572 -0.6631191004 0.3606236470 -0.6477703324 -0.7391154943 -0.1846669506 0.6216114020 -0.6940400000 -0.3631910562 -0.4377390786 0.6553795493 -0.6155177864 -0.1216914751 0.3523740733 -0.9279136260 -0.2329856675 0.2568426679 -0.9379496376 -0.4786336498 0.7628183398 -0.4347620150 -0.1737138682 0.6566875643 0.7338834614 -0.7734362876 -0.6004101536 -0.2032337483 -0.7640900633 -0.6230752595 -0.1671633817 0.2986761208 0.2188532043 -0.9289218750 0.2974134360 0.2166303186 -0.9298475967 -0.2439434255 0.3579143716 -0.9013261939 0.3978268631 0.4542059733 -0.7971390850 0.3423608326 0.4963636683 -0.7977544541 -0.3679682266 0.7958180428 0.4809085432 -0.3649497720 0.8040970046 0.4692969967 -0.8854914332 0.3731742409 0.2768499731 -0.8869869618 0.3678074409 0.2792343389 0.0322167117 0.0956160998 -0.9948968012 0.0299167781 0.0983177600 -0.9947052852 0.0682059846 0.0531564427 -0.9962541524 0.0336832889 0.0939316363 -0.9950086853 0.0706365068 0.0502653425 -0.9962348515 0.0315129027 0.0964889962 -0.9948350670 0.0697449383 0.0513286660 -0.9962434500 -0.9735237297 0.2173008866 0.0709356925 -0.4238558229 -0.7489771315 -0.5092931355 0.4890239021 -0.6031990421 0.6300845489 0.0011470523 0.0684641948 -0.9976529147 0.1759399300 -0.2961258751 -0.9388048823 0.5084285926 -0.3526491800 -0.7855819003 0.1803316439 -0.9835930469 -0.0050215739 0.9711436929 -0.0971642904 -0.2178050240 -0.2651275758 -0.9614074168 0.0735061055 -0.2908765344 -0.5680882990 0.7698483788 0.6003679647 -0.1235934978 -0.7901157854 0.4877602944 0.4212407200 0.7646215737 -0.0679758243 -0.9155850158 -0.3963374399 -0.1218110141 0.3804320459 -0.9167516214 0.3198486380 -0.2090812756 0.9241113942 -0.6040721925 -0.0347773627 -0.7961704097 -0.2391579971 -0.6359415593 0.7337450412 -0.2315474821 -0.6370174976 0.7352512980 0.8045564722 -0.5925280069 0.0399930503 0.5655012755 -0.0072934326 0.8247151710 0.0996572754 0.7561046034 0.6468185651 -0.1534925043 0.6421927044 -0.7510183630 0.7465767007 0.1815173157 -0.6400583521 0.1414909093 -0.5278213499 -0.8374872806 -0.6001471116 -0.5560429235 -0.5750127927 -0.2655363361 0.5367649744 -0.8008581750 -0.8479779750 -0.3158371971 -0.4256526975 -0.7710757426 -0.1248588228 -0.6243816730 0.3590310222 0.2544328236 -0.8979758702 0.3517999337 0.2536793084 -0.9010458452 0.3589460202 0.2544579475 -0.8980027325 0.4646792993 -0.0593574013 0.8834873218 -0.0936861012 -0.1858446336 -0.9781025951 -0.0848661555 -0.1981245172 -0.9764959863 -0.1138764673 -0.6161831559 -0.7793269331 0.0886112484 0.1653434795 0.9822472094 0.7157296723 -0.2994143902 -0.6309374447 0.8781753487 0.0218686365 0.4778386963 0.4082197971 0.9091194501 -0.0828155952 0.9197818988 -0.1472325437 -0.3637634350 0.4277870655 0.5480320346 -0.7187900358 0.4394525020 0.5374469076 -0.7197446214 0.4455987362 0.4935959682 -0.7468632984 -0.0485454792 -0.6506536069 0.7578213643 -0.0481437421 -0.6506583490 0.7578429210 -0.0497862306 -0.6508238060 0.7575946837 -0.0495883092 -0.6508273271 0.7576046396 -0.0496804998 -0.6508522154 0.7575772183 0.3639438301 -0.0156576647 -0.9312892816 0.9432762978 0.2503101091 -0.2181161968 -0.4285999152 0.5268551276 0.7339794188 -0.4289909440 0.5264294829 0.7340563803 -0.4345542265 0.5250261822 0.7317855781 -0.7262425030 0.3025424170 0.6172843047 -0.0362889600 0.2405641224 -0.9699546455 0.0041031069 0.2892643462 -0.9572404622 0.0163252670 0.3096322569 -0.9507162306 0.2013611566 0.3973593255 -0.8952984145 0.1077979563 0.8494517317 -0.5165378555 -0.3693053041 -0.1432353306 -0.9182032631 -0.2700039471 0.0784263996 -0.9596599233 -0.3530756123 -0.2886684380 0.8899483945 -0.3215960064 -0.9253133392 -0.2009259392 0.2932623549 -0.5837422231 -0.7571276036 -0.0298810440 -0.6451838283 -0.7634428275 0.2668564047 0.3719788476 -0.8890553392 0.3191335062 0.1144244213 -0.9407767307 -0.3964563304 0.0135110698 -0.9179541541 -0.3972057338 0.0123031814 -0.9176471199 -0.3732509841 0.0502329208 -0.9263694493 -0.3734685532 0.0499414655 -0.9262975169 0.1842892367 -0.3894522473 0.9024214228 -0.2694290435 0.0358343565 -0.9623533080 -0.2120474556 0.0192426512 -0.9770699038 -0.0860817858 -0.1622084768 0.9829945759 0.6306959768 -0.6959478624 -0.3433353427 0.6344238542 -0.6932924939 -0.3418360588 -0.2452331204 0.8945742388 -0.3736276863 -0.4035572000 0.9127944972 0.0628314586 -0.5502961587 -0.7400392378 0.3866730715 0.1735278137 0.3615582840 -0.9160587892 0.1744353683 0.3463844628 -0.9217321228 0.3688184143 -0.7351850655 -0.5687494147 -0.4895833032 -0.5444927364 -0.6810549532 0.0874898417 0.4826694863 0.8714216514 0.0729894122 0.4577521578 0.8860787255 0.2545243355 0.7719088858 -0.5825581814 0.2177422099 0.8018699304 -0.5564107698 -0.1614522255 -0.9838665332 0.0770702516 -0.0928218880 0.9011134777 0.4235311056 -0.4452114682 -0.8639979060 -0.2351475429 0.7007714590 -0.1018205939 0.7060820979 0.7780971657 -0.0149436973 0.6279661509 -0.1273203787 -0.6337150083 0.7630169130 -0.1228079978 -0.6298715302 0.7669289740 -0.1272890137 -0.6337399558 0.7630014256 -0.1227776743 -0.6299708058 0.7668522847 -0.1228345869 -0.6300186206 0.7668038876 -0.0929336884 -0.6040492720 0.7915098272 -0.1219323053 -0.6310512264 0.7660984679 -0.0934757523 -0.6037156345 0.7917005219 -0.0933542418 -0.6036200878 0.7917877084 -0.0310433937 0.6016883822 0.7981274324 0.5127303200 0.8092239902 -0.2868172808 0.9208294617 0.2509997376 0.2984497179 -0.0788857361 0.2649052025 -0.9610422854 -0.0744518230 0.2681688541 -0.9604907036 -0.0701281797 0.2712780519 -0.9599428405 0.3274717732 0.4936149188 -0.8056714899 0.6858442061 0.7189916617 0.1125553880 -0.1523920858 -0.6449753628 0.7488547480 -0.1524402222 -0.6449533402 0.7488639180 -0.1524536850 -0.6449509969 0.7488631955 -0.1524055831 -0.6449565147 0.7488682343 -0.1524362179 -0.6449530085 0.7488650187 -0.1524561880 -0.6449506870 0.7488629528 -0.1524529369 -0.6449510614 0.7488632922 -0.1523864259 -0.6449587206 0.7488702330 -0.1524014580 -0.6449569897 0.7488686648 0.0626639265 0.755243242