<?xml version="1.0"?>
<VTKFile type="UnstructuredGrid" version="0.1" byte_order="LittleEndian">
  <UnstructuredGrid>
    <FieldData>
      <DataArray type="Float32" Name="TIME"  NumberOfTuples="1" format="ascii"> 1.4000000000 </DataArray>
      <DataArray type="Int32"   Name="STEP"  NumberOfTuples="1" format="ascii"> 140000 </DataArray>
    </FieldData>
    <Piece NumberOfPoints="348" NumberOfCells="348">
      <Points>
        <DataArray type="Float32" NumberOfComponents="3" format="ascii">
 0.4250019164 0.2066470177 0.0759079608 0.4852922027 0.1509054208 0.1866592831 0.5301653850 0.1284407302 0.0402046574 0.5051605721 0.1472275483 0.1826833163 0.6404716911 0.1081666107 0.1126672515 0.5396395811 0.3646748818 0.2038807387 0.5528894608 0.3590865426 0.2071142341 0.5679064494 0.4472594146 0.1937325442 0.7523054964 0.1787010168 0.1459398067 0.7586137327 0.1855578305 0.1503554558 0.6781652672 0.4551042986 0.1693283296 0.8448906593 0.2200943630 0.1194738670 0.8497016157 0.2321206057 0.1152807020 0.7817618112 0.3732543553 0.0369876563 0.7954657574 0.3701775250 0.0373710619 0.8169527965 0.3856154721 0.0431946055 0.8042960406 0.3964045312 0.2240531375 0.8177100403 0.3881042620 0.2262223413 0.8970641509 0.3686839131 0.1724046847 0.7847591550 0.3682697753 0.5629173223 0.7879370243 0.3451895577 0.5598677245 0.8948127250 0.6098609459 0.4960001685 0.9636179506 0.4933235208 0.4449217890 0.9466104157 0.4768342342 0.4517953899 0.2427623620 0.7997348451 0.0414087155 0.2550949090 0.8172289316 0.0914717798 0.0747096264 0.9091442015 0.1098665192 0.1543446490 0.7223170933 0.0814623336 0.0389957707 0.8886002602 0.1662938361 0.0555667499 0.8047988710 0.1553440076 0.0623203638 0.7985103612 0.1588761540 0.1716763356 0.7197660941 0.1453233555 0.1847638921 0.8262510868 0.1958437786 0.1913185886 0.8179748917 0.1967486747 0.5693506102 0.7615035933 0.2455118179 0.6833793312 0.7581529671 0.2617265244 0.6514355807 0.7388080591 0.1620196477 0.7063152981 0.8125143877 0.2796583660 0.6570097896 0.7423339251 0.1620739469 0.6555326835 0.7438768646 0.1560111753 0.6050429327 0.8504266707 0.2447218313 0.5204690902 0.7627041495 0.0984449162 0.7326597287 0.8576846650 0.2194109375 0.7273728302 0.8564399334 0.2067200826 0.5584577187 0.8504334294 0.1634420633 0.5647615035 0.8551183983 0.1613975694 0.5655260049 0.8557379959 0.1540173642 0.1728661019 0.4806642205 0.3234985797 0.1675034396 0.4845506306 0.4414191502 0.1369003136 0.6603968654 0.2434369231 0.0840529078 0.6890140235 0.2636985623 0.1606942729 0.6613996449 0.2414280049 0.2574735738 0.4521878473 0.3445680937 0.2906216792 0.4616055887 0.4185000614 0.1233246580 0.7599543520 0.4198595781 0.3084037489 0.4590447374 0.2811210741 0.2709637345 0.7854901367 0.2556060570 0.4238498565 0.5343144538 0.4162972718 0.4306061307 0.5455534362 0.4203703958 0.2456211565 0.8875636994 0.3717167376 0.3946492828 0.8349779531 0.4534373342 0.4436502778 0.9114991257 0.2750708573 0.5613850064 0.7792177329 0.4616339182 0.7428427448 0.3442169231 0.5300333527 0.7557595055 0.3415659210 0.5260974409 0.5805046928 0.2027406106 0.5692397476 0.6605843398 0.0750251136 0.2097620601 0.6490815044 0.1080358719 0.2428164715 0.6080345748 0.1077973109 0.3167266478 0.5365771729 0.0949146663 0.3302159728 0.6513097909 0.9045053355 0.3613479433 0.7363023743 0.9447528865 0.5310838012 0.6985396507 0.9098972321 0.3320469582 0.7119701813 0.2409722773 0.2830157445 0.7639161011 0.3793540767 0.3441664831 0.7706828106 0.3873033820 0.3524716506 0.5690835075 0.3186375665 0.3118815438 0.5337308210 0.2359334227 0.4487107491 0.4819791558 0.2669649321 0.3478548263 0.4710515992 0.3276663342 0.5044850077 0.3861169082 0.4139646753 0.4443899477 0.1210714467 0.2919641696 0.0844930749 0.1783121423 0.3771444671 0.0529384354 0.1493803517 0.4387308855 0.0568435177 0.0951046927 0.4146026554 0.1044354511 0.2079506302 0.4385827383 0.0528924794 0.1966125457 0.4343752288 0.0568270644 0.2720002725 0.5419262308 0.0601134669 0.1117137598 0.4729455569 0.1348046179 0.1047927650 0.4919367099 0.1450259262 0.0995824125 0.5072533483 0.1534222353 0.1197402184 0.6090757105 0.0768311468 0.1243799430 0.6140341591 0.0785191029 0.0730019102 0.6660140442 0.2038376242 0.0763896593 0.6738071631 0.1941157532 0.1368310284 0.3950919928 0.2407838032 0.2422612507 0.3040209225 0.2229744691 0.2366544091 0.2957003167 0.2228418408 0.2487530835 0.3043907669 0.2244078841 0.2294007113 0.2900851642 0.2219602736 0.2434405232 0.2947242143 0.2245381492 0.2549058678 0.3065746726 0.2255143051 0.2496765430 0.2952312786 0.2258934733 0.2609970184 0.3107066737 0.2263372357 0.2673356290 0.3171920951 0.2268952714 0.2743300723 0.3268400380 0.2271829356 0.0603343428 0.3235878691 0.2403481144 0.2818711291 0.3248383403 0.2291762745 0.2662326046 0.3216251940 0.3132899229 0.2733512736 0.3271077053 0.3139639932 0.0744633098 0.2506451621 0.2703891457 0.1132448771 0.0684698370 0.2996104770 0.2423667908 0.1319351408 0.3409701599 0.2509639488 0.1371339040 0.3422435202 0.2668260254 0.1557131123 0.3436062804 0.2742430850 0.1653515826 0.3441388299 0.8299126122 0.1072809754 0.4136754824 0.2157995941 0.3125659358 0.4408475909 0.2224272361 0.3161426568 0.4424131689 0.2874146577 0.2670118470 0.4161949653 0.2908399009 0.2675347563 0.4189989247 0.2980289599 0.2803907466 0.5031869926 0.2541177911 0.3454570116 0.3700172429 0.3108495694 0.3807485781 0.4288184810 0.6334727284 0.7315675693 0.5123701861 0.7516156852 0.6998257482 0.4567896710 0.7286358503 0.7797184488 0.3779615212 0.6014794681 0.5230834374 0.2544659646 0.6022527507 0.5426688657 0.2597004075 0.6198424144 0.5471839619 0.0836331939 0.6260535225 0.5622245072 0.0837069368 0.6396946912 0.5590835102 0.0832654219 0.7410381946 0.6640500484 0.2510181655 0.8185644294 0.4749114827 0.2427891944 0.8263997195 0.4851335374 0.2454289041 0.7520906477 0.6663762979 0.2523901120 0.8340987532 0.4950667819 0.2478700716 0.7584607250 0.7526036927 0.1136614162 0.7641115166 0.6690463845 0.2537886728 0.7778964607 0.6723726407 0.2552766094 0.8022211784 0.7665918571 0.1614589488 0.9215373907 0.5593950959 0.1913358716 0.8978323025 0.6355419967 0.0942339203 0.9262617675 0.6783136096 0.2684673301 0.9121443731 0.7264118453 0.2334090899 0.9393650979 0.6713508225 0.2629879219 0.3657948198 0.5766179448 0.0836467035 0.4796714565 0.7326923039 0.0275606137 0.4427024383 0.6663136649 0.0959866751 0.4520253794 0.6602599918 0.0964737486 0.3894878818 0.1707322128 0.4220877362 0.3840175536 0.1584771891 0.4253161939 0.3340354481 0.0833072337 0.4720102758 0.1713050175 0.1844928119 0.3887521417 0.2162801875 0.1308568085 0.4589322269 0.1400753063 0.0877193243 0.4244487647 0.2543672077 0.1548539526 0.0770208518 0.3214476026 0.0796130554 0.1135296777 0.3627340354 0.1664507491 0.0990486243 0.3619344811 0.1719895639 0.1001623474 0.3651821953 0.1698752201 0.1025279681 0.3682119472 0.1735859516 0.1066446591 0.3292944311 0.2036114584 0.1573426010 0.3371842636 0.2090651238 0.1617313132 0.0620553885 0.1507548564 0.5063125968 0.0411336439 0.9383353536 0.1633593579 0.1582009487 0.9509244012 0.1724658747 0.4618361976 0.4845739156 0.1667997176 0.4572890076 0.4749507835 0.1669473108 0.5263038518 0.3950787388 0.2669726484 0.5220264251 0.3916041059 0.2691147499 0.8806245360 0.5609155920 0.0485098954 0.8723741346 0.5656501798 0.0456492210 0.8787639553 0.5638602776 0.0437009217 0.0848231290 0.9507445581 0.2986929308 0.7712133849 0.0774342714 0.2851823506 0.7249111997 0.0927622085 0.2981837384 0.7245846823 0.0995501944 0.3033480422 0.8352207052 0.1252138132 0.3225694591 0.8467283080 0.1309023930 0.3214911576 0.8417308155 0.1386766616 0.3280505663 0.7707203386 0.1909359075 0.2040781746 0.7747410911 0.1947674527 0.2069056359 0.3539305772 0.1908897150 0.5378865898 0.4047396961 0.2897516617 0.5591802268 0.9516929610 0.6152330864 0.3350513269 0.9064057139 0.4816498473 0.3654117979 0.8997744925 0.4792407274 0.3659743270 0.9021362226 0.4739895697 0.3628722008 0.8958980312 0.4720448748 0.3636253333 0.9027671034 0.3809429326 0.2926523043 0.3432527063 0.9113820609 0.0687021977 0.3482713527 0.9041787704 0.0728624249 0.2974417201 0.8398522787 0.0897861383 0.2989125999 0.8342965390 0.0890975412 0.8001697091 0.6601931411 0.3597188600 0.7126559849 0.7595875549 0.2941128693 0.0908837838 0.8791014244 0.4430203463 0.1054249563 0.8775646641 0.4523630133 0.1179778957 0.9138047056 0.2307090514 0.2540106764 0.3184756554 0.1147532159 0.2557747614 0.3239131304 0.1153965525 0.2608891985 0.3189119150 0.1151179255 0.2623234452 0.3244491711 0.1156818869 0.2674809828 0.3189073785 0.1154400856 0.2633337191 0.3299851643 0.1161633651 0.2686906016 0.3245892824 0.1158614864 0.3469822783 0.2669910141 0.0577365659 0.2800046372 0.4118094763 0.0598803183 0.1972604023 0.4192239219 0.3303943234 0.0961372086 0.1829063233 0.3771979301 0.1387680634 0.2201027974 0.3842706032 0.0945156674 0.2876997342 0.2934137532 0.0862943750 0.2772757989 0.2976704472 0.4078815927 0.1187765340 0.4702891986 0.4583030865 0.1616568647 0.4650146173 0.4673222370 0.1595794924 0.4655155701 0.5508892812 0.0554918579 0.4376506837 0.5466373461 0.0732834024 0.3950662143 0.2097922987 0.9239322486 0.4361229918 0.2024041178 0.9443951393 0.2497777424 0.4843078291 0.2619139840 0.5240631777 0.4943647963 0.2596677444 0.5284747623 0.5160762660 0.1911268081 0.5221144523 0.4400754489 0.1864117786 0.4360937469 0.4482500952 0.1902684543 0.4334195621 0.7878629938 0.0597666479 0.2310450564 0.7454338935 0.0909761023 0.1144253956 0.7475319567 0.0852845386 0.1108548888 0.5434720922 0.9285422570 0.2843044784 0.5801762494 0.9172720872 0.2169232675 0.9400233959 0.1611906579 0.2660921996 0.9291302776 0.1581514222 0.2727223113 0.9204853097 0.3918113924 0.3655858047 0.4215220927 0.9075188263 0.0808103794 0.4207376152 0.9141157209 0.0802035557 0.3612387282 0.9026044227 0.1293325972 0.3545504644 0.9049043790 0.1273235948 0.3593808566 0.9112342704 0.1310392401 0.5738431251 0.7370050986 0.5022882215 0.5335700923 0.8250674407 0.0370961230 0.5431587638 0.8168455142 0.0375399553 0.5643288881 0.8935860825 0.0198555708 0.4758973072 0.8153232625 0.4969113349 0.4767291677 0.8207694001 0.4965268568 0.4130023429 0.8277687122 0.5558328766 0.9748536707 0.8496262437 0.2390418164 0.9384652865 0.8845808999 0.4034434761 0.8712508376 0.0866456021 0.2304762467 0.8671966164 0.0835140844 0.2255866662 0.9079600611 0.1160521118 0.1659656720 0.9052337736 0.1097854494 0.1604599078 0.9064933798 0.1049875138 0.1564095703 0.9029390452 0.0947312704 0.1474203930 0.9030582237 0.0846099450 0.1387344682 0.6525396614 0.8779633118 0.0708598748 0.4833089040 0.8951350003 0.0915155036 0.2216667659 0.0595731606 0.0858365413 0.1005534819 0.8073152424 0.4344939218 0.1072820047 0.8061559828 0.4386847204 0.1032386012 0.8042834904 0.4379037947 0.0983715467 0.8021552221 0.4368689833 0.2956641821 0.8896115837 0.1446625062 0.3667479799 0.8040450516 0.1303252739 0.3962819848 0.9318171680 0.1836956837 0.4110860608 0.9316419959 0.1815478618 0.4011959406 0.9057281274 0.1524761372 0.1593035356 0.1246374690 0.0238635924 0.0943571071 0.1064290121 0.0904601965 0.0880068555 0.1101196135 0.0874641540 0.1063154131 0.2154640980 0.0761547180 0.2006975957 0.1344661388 0.0794980998 0.8182742518 0.8958751119 0.0980669118 0.8124008795 0.8990345742 0.1006572394 0.8162917831 0.9079724881 0.0991091586 0.8008954863 0.9058376985 0.2691965424 0.8217229852 0.8815956560 0.3717935947 0.1400780338 0.3286572126 0.5554029515 0.7901564072 0.6458111442 0.4670825710 0.7900594473 0.6481942388 0.4621557899 0.7942917513 0.6522630889 0.4618668760 0.7982241709 0.6559139227 0.4618301129 0.7975966301 0.6576150951 0.4573175219 0.8012519684 0.6609125964 0.4574929125 0.8040370601 0.6655827959 0.4533553917 0.8960087380 0.3806027580 0.3969617012 0.0646189585 0.1019417365 0.4695712499 0.1048379981 0.2252374774 0.3940868693 0.1128831902 0.2204259505 0.3923026212 0.6944389103 0.0642549864 0.3645824011 0.8755138506 0.1930267991 0.3771668339 0.8713392915 0.0361671463 0.3244340534 0.8373446867 0.0327515079 0.3722857874 0.4243015424 0.3157627868 0.1079650891 0.8858003516 0.8592077609 0.2073097485 0.8888129212 0.8509525256 0.2011719656 0.8272546652 0.8758608740 0.1550865985 0.8232087621 0.8789747248 0.1569899448 0.8252652363 0.8820085077 0.1596378616 0.8193515507 0.8818193009 0.1587261721 0.8213447128 0.8848495843 0.1613319461 0.8174961010 0.8876383657 0.1630141885 0.8194101479 0.8908977070 0.1657816764 0.8136294912 0.8905231196 0.1647858842 0.8153789588 0.8939710671 0.1676462934 0.8111707587 0.8974324141 0.1698075732 0.5720873294 0.0587914636 0.5308028152 0.5551899922 0.0634631878 0.5268427201 0.2115056090 0.1276527052 0.1302672773 0.1095133905 0.2033910745 0.1093713696 0.0767740289 0.6604351913 0.5043491263 0.5765250701 0.5355204758 0.0339330159 0.9094614351 0.1044896918 0.0858706918 0.9073373893 0.1101605950 0.0903254770 0.9068216232 0.1145796250 0.0940252941 0.9098016494 0.1435496089 0.1195509902 0.9077265370 0.1181754447 0.0972963115 0.9073264024 0.1330180637 0.1099933944 0.9101271823 0.1211876774 0.1003635259 0.9096093430 0.1284343344 0.1064985407 0.6291338530 0.0630706818 0.4053269794 0.6261421133 0.0642748329 0.4057587227 0.6167407783 0.0620221912 0.4025083025 0.5447989736 0.0798090137 0.3625977468 0.3673781446 0.4698582933 0.0749932880 0.2030592692 0.6324473941 0.0590546311 0.3276061677 0.6603296569 0.1367728614 0.3709593247 0.5213482677 0.0768288662 0.9708261317 0.3530422487 0.0775967872 0.9715728028 0.3566671978 0.0752557101 0.9699308742 0.3600578386 0.0787188882 0.9254080169 0.4582611251 0.1275890993 0.9322301459 0.4571850962 0.1149276988 0.3962848580 0.7260349804 0.1192420165 0.5180548538 0.4797847553 0.0666083033 0.0898259641 0.3599381876 0.3690016254 0.0795618259 0.3460304682 0.4395714157 0.0950860987 0.3507172985 0.3721227676 0.2852111915 0.8404237723 0.4763481431 0.3745026940 0.0860043690 0.4942189563 0.3747471476 0.0666089468 0.4818768298 0.0712102749 0.4058710755 0.2644991698 0.1024518055 0.4554522361 0.2208376899 0.0960329635 0.4529773776 0.2182505814 0.4063882083 0.0678745647 0.5468815697 0.8381569218 0.8939411493 0.4469947258 0.4811987281 0.9182412678 0.1875862444 0.4754342082 0.9122753631 0.1837918678
        </DataArray>
      </Points>
      <Cells>
        <DataArray type="Int32" Name="connectivity" format="ascii">
 0 1 2 3 4 5 6 7 8 9 10 11 12 13 14 15 16 17 18 19 20 21 22 23 24 25 26 27 28 29 30 31 32 33 34 35 36 37 38 39 40 41 42 43 44 45 46 47 48 49 50 51 52 53 54 55 56 57 58 59 60 61 62 63 64 65 66 67 68 69 70 71 72 73 74 75 76 77 78 79 80 81 82 83 84 85 86 87 88 89 90 91 92 93 94 95 96 97 98 99 100 101 102 103 104 105 106 107 108 109 110 111 112 113 114 115 116 117 118 119 120 121 122 123 124 125 126 127 128 129 130 131 132 133 134 135 136 137 138 139 140 141 142 143 144 145 146 147 148 149 150 151 152 153 154 155 156 157 158 159 160 161 162 163 164 165 166 167 168 169 170 171 172 173 174 175 176 177 178 179 180 181 182 183 184 185 186 187 188 189 190 191 192 193 194 195 196 197 198 199 200 201 202 203 204 205 206 207 208 209 210 211 212 213 214 215 216 217 218 219 220 221 222 223 224 225 226 227 228 229 230 231 232 233 234 235 236 237 238 239 240 241 242 243 244 245 246 247 248 249 250 251 252 253 254 255 256 257 258 259 260 261 262 263 264 265 266 267 268 269 270 271 272 273 274 275 276 277 278 279 280 281 282 283 284 285 286 287 288 289 290 291 292 293 294 295 296 297 298 299 300 301 302 303 304 305 306 307 308 309 310 311 312 313 314 315 316 317 318 319 320 321 322 323 324 325 326 327 328 329 330 331 332 333 334 335 336 337 338 339 340 341 342 343 344 345 346 347
        </DataArray>
        <DataArray type="Int32" Name="offsets" format="ascii">
 1 2 3 4 5 6 7 8 9 10 11 12 13 14 15 16 17 18 19 20 21 22 23 24 25 26 27 28 29 30 31 32 33 34 35 36 37 38 39 40 41 42 43 44 45 46 47 48 49 50 51 52 53 54 55 56 57 58 59 60 61 62 63 64 65 66 67 68 69 70 71 72 73 74 75 76 77 78 79 80 81 82 83 84 85 86 87 88 89 90 91 92 93 94 95 96 97 98 99 100 101 102 103 104 105 106 107 108 109 110 111 112 113 114 115 116 117 118 119 120 121 122 123 124 125 126 127 128 129 130 131 132 133 134 135 136 137 138 139 140 141 142 143 144 145 146 147 148 149 150 151 152 153 154 155 156 157 158 159 160 161 162 163 164 165 166 167 168 169 170 171 172 173 174 175 176 177 178 179 180 181 182 183 184 185 186 187 188 189 190 191 192 193 194 195 196 197 198 199 200 201 202 203 204 205 206 207 208 209 210 211 212 213 214 215 216 217 218 219 220 221 222 223 224 225 226 227 228 229 230 231 232 233 234 235 236 237 238 239 240 241 242 243 244 245 246 247 248 249 250 251 252 253 254 255 256 257 258 259 260 261 262 263 264 265 266 267 268 269 270 271 272 273 274 275 276 277 278 279 280 281 282 283 284 285 286 287 288 289 290 291 292 293 294 295 296 297 298 299 300 301 302 303 304 305 306 307 308 309 310 311 312 313 314 315 316 317 318 319 320 321 322 323 324 325 326 327 328 329 330 331 332 333 334 335 336 337 338 339 340 341 342 343 344 345 346 347 348
        </DataArray>
        <DataArray type="UInt8" Name="types" format="ascii">
 1 1 1 1 1 1 1 1 1 1 1 1 1 1 1 1 1 1 1 1 1 1 1 1 1 1 1 1 1 1 1 1 1 1 1 1 1 1 1 1 1 1 1 1 1 1 1 1 1 1 1 1 1 1 1 1 1 1 1 1 1 1 1 1 1 1 1 1 1 1 1 1 1 1 1 1 1 1 1 1 1 1 1 1 1 1 1 1 1 1 1 1 1 1 1 1 1 1 1 1 1 1 1 1 1 1 1 1 1 1 1 1 1 1 1 1 1 1 1 1 1 1 1 1 1 1 1 1 1 1 1 1 1 1 1 1 1 1 1 1 1 1 1 1 1 1 1 1 1 1 1 1 1 1 1 1 1 1 1 1 1 1 1 1 1 1 1 1 1 1 1 1 1 1 1 1 1 1 1 1 1 1 1 1 1 1 1 1 1 1 1 1 1 1 1 1 1 1 1 1 1 1 1 1 1 1 1 1 1 1 1 1 1 1 1 1 1 1 1 1 1 1 1 1 1 1 1 1 1 1 1 1 1 1 1 1 1 1 1 1 1 1 1 1 1 1 1 1 1 1 1 1 1 1 1 1 1 1 1 1 1 1 1 1 1 1 1 1 1 1 1 1 1 1 1 1 1 1 1 1 1 1 1 1 1 1 1 1 1 1 1 1 1 1 1 1 1 1 1 1 1 1 1 1 1 1 1 1 1 1 1 1 1 1 1 1 1 1 1 1 1 1 1 1 1 1 1 1 1 1 1 1 1 1 1 1 1 1 1 1 1 1 1 1 1 1 1 1
        </DataArray>
      </Cells>
      <PointData Scalars="overlap">
        <DataArray type="Float32" Name="overlap" format="ascii">
 0.0002134633 0.0000020303 0.0000232179 0.0001689673 0.0000167618 0.0000725064 0.0000326232 0.0000023970 0.0000509866 0.0002422640 0.0002841068 0.0000078567 0.0001546212 0.0000416848 0.0000542302 0.0004751583 0.0000087239 0.0002257833 0.0000657747 0.0000326110 0.0000280448 0.0000022708 0.0000296625 0.0000868145 0.0000841373 0.0001978774 0.0001374833 0.0000684482 0.0000140961 0.0000160446 0.0000863701 0.0002891732 0.0000440889 0.0000001676 0.0001828545 0.0000764181 0.0000287164 0.0000807169 0.0001089437 0.0001737508 0.0000433816 0.0001790293 0.0000382093 0.0000369103 0.0000075393 0.0000419520 0.0001399862 0.0000730310 0.0001072997 0.0002286348 0.0000798919 0.0000828121 0.0000281659 0.0000280952 0.0000537805 0.0003140630 0.0000156030 0.0001226701 0.0000962026 0.0000523710 0.0000408001 0.0003446289 0.0000540374 0.0001134137 0.0000542159 0.0000197537 0.0000349579 0.0000416254 0.0000150944 0.0000909879 0.0000285925 0.0000053958 0.0000350449 0.0001605597 0.0000223255 0.0002508028 0.0001124848 0.0000067846 0.0000606819 0.0000100401 0.0000280239 0.0000481062 0.0000200091 0.0000300304 0.0000258368 0.0001106007 0.0001245515 0.0000248543 0.0000034139 0.0000249964 0.0000208710 0.0000854263 0.0000550916 0.0000590446 0.0000537500 0.0000592232 0.0000709450 0.0000498410 0.0000919014 0.0000216941 0.0000429725 0.0001062732 0.0000107552 0.0001242623 0.0001428877 0.0001359736 0.0000491535 0.0001486051 0.0000173901 0.0000170141 0.0000391017 0.0000867600 0.0000141446 0.0000411629 0.0000860482 0.0000089165 0.0000326156 0.0000223988 0.0000291761 0.0000393625 0.0000278383 0.0000528534 0.0000880573 0.0000155670 0.0000098264 0.0000261765 0.0000360201 0.0000366183 0.0000175922 0.0001603536 0.0000093236 0.0000319349 0.0000066295 0.0000502425 0.0001715829 0.0000370961 0.0001018788 0.0001734435 0.0000680797 0.0000052199 0.0001632308 0.0000030756 0.0002522561 0.0000090893 0.0000206826 0.0000135253 0.0000498348 0.0000031157 0.0000132436 0.0000808854 0.0000276861 0.0000047185 0.0000273435 0.0000217892 0.0000311055 0.0000475098 0.0000345498 0.0000433503 0.0000192841 0.0000112948 0.0000526293 0.0000137444 0.0000457727 0.0000189186 0.0000454343 0.0000061766 0.0000654399 0.0000077524 0.0000206532 0.0000043916 0.0000122526 0.0000023125 0.0000777827 0.0000308289 0.0000046735 0.0000461898 0.0000010984 0.0000471909 0.0000108279 0.0000089452 0.0000887347 0.0002191650 0.0000366521 0.0000070642 0.0000080824 0.0000025820 0.0000270173 0.0000388588 0.0000665345 0.0000164163 0.0000340376 0.0000219934 0.0000826043 0.0000325579 0.0000623017 0.0000814222 0.0000193910 0.0000082020 0.0000766634 0.0000223873 0.0000674977 0.0001137862 0.0003348136 0.0003153588 0.0000190310 0.0000289871 0.0001267741 0.0001469474 0.0000177542 0.0000610168 0.0000046823 0.0000273536 0.0000273643 0.0000164476 0.0000132237 0.0000150874 0.0000181232 0.0000018321 0.0000108686 0.0000315793 0.0000782508 0.0000061425 0.0000039754 0.0000317688 0.0000140180 0.0000082818 0.0000154381 0.0000161168 0.0000390219 0.0000369000 0.0000441894 0.0000349049 0.0000187315 0.0000220737 0.0000692035 0.0001879743 0.0000754903 0.0000630954 0.0000669992 0.0000228420 0.0000634576 0.0000708440 0.0000214192 0.0000050804 0.0000379453 0.0000007246 0.0001373857 0.0000232756 0.0000256606 0.0000247951 0.0000285596 0.0000271198 0.0000511992 0.0000397361 0.0000260235 0.0000036890 0.0000099349 0.0000083924 0.0000343119 0.0000177655 0.0000558179 0.0000681668 0.0000474250 0.0000175580 0.0000840690 0.0001101641 0.0000330814 0.0000280769 0.0000139027 0.0000238409 0.0000109179 0.0000210615 0.0000882605 0.0000435036 0.0000703116 0.0000600034 0.0000395540 0.0000069269 0.0000256754 0.0000162613 0.0000423677 0.0000121924 0.0000174626 0.0000182589 0.0000000200 0.0000191739 0.0000419919 0.0000000014 0.0000121706 0.0000267558 0.0000178391 0.0000321857 0.0000749133 0.0000097926 0.0000729924 0.0000870274 0.0000070820 0.0000270371 0.0000126846 0.0000140060 0.0000515427 0.0000573332 0.0000236420 0.0000305363 0.0000442380 0.0000309575 0.0000202848 0.0000307952 0.0000156640 0.0000086960 0.0001059046 0.0000169573 0.0000570305 0.0000267101 0.0000154009 0.0000169946 0.0000275223 0.0000000702 0.0000584772 0.0000408946 0.0000084743 0.0000001172 0.0000128326 0.0000325143 0.0000283393 0.0000318077 0.0000161572 0.0000462131 0.0000226197 0.0000047997 0.0000146176 0.0000079452 0.0000112781 0.0000200332 0.0000117997 0.0000299161 0.0000840650 0.0000353401 0.0000070145 0.0000041997 0.0000006535 0.0000716211 0.0000204672 0.0000106249 0.0000060111 0.0000178047 0.0000352406 0.0001078650
        </DataArray>
        <DataArray type="Float32" Name="contact normal" NumberOfComponents="3" format="ascii">