<?xml version="1.0"?>
<VTKFile type="UnstructuredGrid" version="0.1" byte_order="LittleEndian">
  <UnstructuredGrid>
    <FieldData>
      <DataArray type="Float32" Name="TIME"  NumberOfTuples="1" format="ascii"> 6.5999999999 </DataArray>
      <DataArray type="Int32"   Name="STEP"  NumberOfTuples="1" format="ascii"> 660000 </DataArray>
    </FieldData>
    <Piece NumberOfPoints="399" NumberOfCells="399">
      <Points>
        <DataArray type="Float32" NumberOfComponents="3" format="ascii">
 0.4248652734 0.2068256214 0.0759431529 0.5299832664 0.1286329776 0.0400908400 0.5050734416 0.1472908182 0.1825918634 0.6403308146 0.1082664804 0.1124597664 0.5396124984 0.3646968231 0.2040009693 0.5528625934 0.3591026204 0.2072269518 0.5678908799 0.4472845684 0.1939272605 0.7522015890 0.1787392883 0.1457377994 0.7585133673 0.1855917977 0.1501548551 0.6781371326 0.4551492338 0.1694662525 0.8496089018 0.2321595111 0.1150671773 0.7816290866 0.3733981109 0.0369727235 0.7953317248 0.3703151397 0.0373492508 0.8168259554 0.3857439172 0.0431750238 0.8042876462 0.3963508301 0.2240358512 0.8177014648 0.3880445530 0.2261942991 0.8970057110 0.3686632216 0.1723159620 0.7489581710 0.3245514309 0.6726916258 0.7715941891 0.2992916752 0.6582661739 0.7860266043 0.3638989348 0.5621540349 0.8677399643 0.6052368411 0.5111382729 0.9118157471 0.5556472749 0.5587202147 0.8933347322 0.6065759147 0.4947006603 0.9262233847 0.5446444886 0.5458339493 0.9417329193 0.3093602901 0.5254691561 0.9349242227 0.3343187028 0.5344056540 0.9466582366 0.4740594934 0.4508203678 0.2426832455 0.7997988163 0.0414069956 0.2550044104 0.8173397163 0.0914574549 0.0745409973 0.9091238385 0.1097906911 0.1543238195 0.7223198480 0.0815085355 0.0388484220 0.8885769495 0.1662308539 0.0554835793 0.8047841276 0.1553464056 0.0622457186 0.7985060231 0.1588806813 0.1716660685 0.7198413869 0.1453823085 0.1846706541 0.8263780000 0.1958310308 0.5696635029 0.7614168178 0.2455278718 0.6836967440 0.7584638006 0.2617673056 0.6518278875 0.7389200323 0.1620811111 0.7064509158 0.8129152646 0.2796415026 0.6573961049 0.7424565625 0.1621263775 0.6559157988 0.7439889306 0.1560631042 0.6050555076 0.8504654655 0.2446685720 0.6094923808 0.8548466051 0.2417820477 0.5207968551 0.7623145512 0.0984627111 0.7326517603 0.8581098459 0.2193666652 0.7273907035 0.8568458403 0.2066720630 0.5647772756 0.8549313264 0.1613298046 0.5655449205 0.8555400381 0.1539491266 0.1730877191 0.4807040567 0.3236716311 0.1676973080 0.4846862295 0.4415938594 0.1372093114 0.6603890237 0.2434475422 0.0843620055 0.6890416731 0.2636714090 0.1610017119 0.6613728279 0.2414232916 0.2576846225 0.4522146784 0.3447878719 0.2908204610 0.4616815040 0.4187231328 0.2909881147 0.5655098430 0.4523299927 0.3086335724 0.4589964716 0.2813334123 0.1182083167 0.7733041616 0.4080898406 0.2713209729 0.7854264550 0.2555513227 0.4240756146 0.5343447932 0.4164834642 0.4308563711 0.5455607647 0.4205680953 0.2460004570 0.8876089427 0.3715553249 0.3711228602 0.8402724464 0.4486940808 0.3884537276 0.8571715755 0.4473817672 0.4440474085 0.9114116413 0.2749316647 0.5616924520 0.7792383307 0.4616582423 0.7554643791 0.3393624036 0.5253689820 0.7491434059 0.3251166861 0.5221877520 0.7310374611 0.1923240256 0.5211106107 0.6605264947 0.0750018181 0.2089068368 0.6490922512 0.1078241181 0.2421730346 0.6082328933 0.1071852491 0.3161807729 0.5368086350 0.0942205073 0.3297720540 0.6497677876 0.8867014836 0.4452708248 0.6558293732 0.9007447763 0.3525089218 0.6572087377 0.9097054380 0.3464138577 0.7437356159 0.9446353466 0.5283424922 0.6975302534 0.9102991327 0.3310051152 0.7118972959 0.2412332038 0.2823345284 0.6923348771 0.1618257417 0.4376724540 0.7639628010 0.3793140183 0.3440306180 0.7707362681 0.3872263197 0.3523744436 0.5690858127 0.3189440264 0.3113899881 0.5335522961 0.2357777789 0.4478724440 0.4819232521 0.2672516230 0.3471252073 0.4709355899 0.3273645585 0.5039600894 0.4582445104 0.3355684472 0.5055518379 0.3861284903 0.4139793110 0.4441344351 0.5795580514 0.5972598897 0.5628811222 0.1272838361 0.2954928560 0.0794085817 0.1210210646 0.2920263040 0.0845422650 0.1781398246 0.3772366810 0.0528340468 0.1491832822 0.4388050539 0.0568122197 0.0950507386 0.4146559641 0.1045548678 0.2077565034 0.4386277687 0.0527659453 0.1964204694 0.4344289004 0.0567133352 0.2718640219 0.5419341927 0.0599528403 0.1116346640 0.4730201269 0.1348037436 0.1123434788 0.4827929536 0.1420340964 0.1047358643 0.4920117269 0.1450392156 0.0995437432 0.5073286893 0.1534462210 0.1196631768 0.6091649924 0.0768636118 0.1243071361 0.6141220796 0.0785443344 0.0731064922 0.6660889979 0.2039463630 0.0764847237 0.6738822471 0.1942228549 0.1368994515 0.3952855618 0.2410310376 0.2422138718 0.3041294321 0.2229849171 0.2365972570 0.2958154617 0.2228491004 0.2487075031 0.3044902891 0.2244124670 0.2293362078 0.2902096150 0.2219687158 0.2433838542 0.2948297476 0.2245379178 0.2197451666 0.2869286522 0.2202326815 0.2548638782 0.3066659297 0.2255152135 0.2368440943 0.2880816014 0.2239875908 0.2496219970 0.2953278381 0.2258881775 0.2609606088 0.3107900270 0.2263365286 0.2673072740 0.3172675258 0.2268951417 0.2743131731 0.3269070426 0.2271860643 0.0603285669 0.3238588801 0.2405528203 0.2818538305 0.3248945524 0.2291699639 0.2734198792 0.3270489259 0.3139752437 0.2819442437 0.3344278608 0.3145363320 0.0744068355 0.2508621694 0.2704874181 0.0724375813 0.1488438039 0.2300767325 0.1130178236 0.0685979211 0.2994122688 0.1289120111 0.0610855849 0.3107428478 0.2422543827 0.1318700429 0.3407272687 0.2508588969 0.1370574309 0.3419972266 0.2667447084 0.1556162425 0.3433602379 0.2741738112 0.1652456842 0.3438921687 0.2824449284 0.1696902004 0.3451598669 0.8679168173 0.1866465606 0.4388068653 0.8336790829 0.1057844710 0.4125787763 0.7587793318 0.1533929320 0.5977285507 0.7548247233 0.1422561717 0.5935154488 0.7470100077 0.1331168802 0.5912822074 0.2973209366 0.2801233721 0.5031618799 0.2898216115 0.2700269509 0.4140878376 0.2535000868 0.3450426439 0.3698644511 0.3102823567 0.3803417941 0.4286207288 0.6312883128 0.7388037819 0.5144368150 0.6934343097 0.6467633116 0.3835481074 0.7179962185 0.8411238366 0.5228714461 0.7601126603 0.7119197874 0.4431579176 0.7150694091 0.7763955929 0.3773373676 0.7224933145 0.7765644822 0.3764739382 0.7217503028 0.7830364055 0.3798921448 0.5481886563 0.5178815317 0.2034166623 0.6016775436 0.5231822307 0.2544422272 0.6024654374 0.5427593065 0.2596858079 0.6200444141 0.5473509321 0.0836205641 0.6262686611 0.5623859832 0.0836989434 0.6399076010 0.5592330821 0.0832590049 0.7413572662 0.6640252084 0.2510475078 0.8187181024 0.4748241532 0.2427192439 0.8265623246 0.4850385963 0.2453617607 0.7524099641 0.6663463299 0.2524264287 0.8342699869 0.4949644835 0.2478057052 0.7588463664 0.7526344149 0.1137502715 0.7644312259 0.6690108511 0.2538326113 0.7782264865 0.6723036674 0.2552960962 0.8026223999 0.7665645246 0.1615343648 0.8794318846 0.6238433843 0.0942666159 0.9217435925 0.5592539307 0.1912948587 0.8981111940 0.6354675531 0.0942531154 0.9265947246 0.6781198648 0.2684894832 0.9125157695 0.7262495629 0.2334573934 0.9396912245 0.6711488298 0.2630044818 0.3658526217 0.5765587346 0.0833472450 0.4803353666 0.7324424889 0.0279607388 0.4430330914 0.6659637302 0.0961073877 0.4495918486 0.6639638200 0.0952669534 0.4523358563 0.6598790487 0.0965934394 0.3894153897 0.1711526721 0.4216739469 0.3343311550 0.0835966560 0.4717569282 0.1711631567 0.1840694919 0.3885514117 0.2163989398 0.1306965983 0.4587593407 0.1403175207 0.0872417304 0.4244185134 0.9285702227 0.4500573983 0.5810552911 0.2542665181 0.1549646688 0.0768239538 0.2905343582 0.1241736611 0.1289608098 0.3212497583 0.0796919420 0.1134334523 0.3626136685 0.1664948875 0.0989913030 0.3618117287 0.1720328457 0.1001077287 0.3650573888 0.1699174944 0.1024754994 0.3680820326 0.1736261352 0.1065978730 0.3291205295 0.2036828119 0.1572354868 0.3370106031 0.2091300215 0.1616359848 0.0617469448 0.1503410715 0.5057993526 0.1851546421 0.1663327209 0.5386186084 0.1499009586 0.2658893639 0.5712991507 0.1483449830 0.2522233266 0.4787904714 0.0408595754 0.9382736615 0.1632801786 0.1579123458 0.9508839685 0.1726202249 0.1685814184 0.9468863666 0.1683300713 0.4623076959 0.4848420280 0.1661080617 0.4577480509 0.4752241555 0.1662387427 0.5258198868 0.3954507279 0.2669791866 0.8807308041 0.5610012135 0.0484159801 0.8724851377 0.5657497308 0.0455653074 0.8788724868 0.5639578060 0.0436099529 0.9528860505 0.5564841460 0.0824626248 0.0848632959 0.9509150992 0.2972593939 0.0909324610 0.9527349786 0.2984104627 0.1709238749 0.9291523064 0.3642662642 0.7712013057 0.0774327081 0.2849989511 0.7320445367 0.0975392768 0.3049634957 0.7245536425 0.0995463045 0.3031239831 0.8351613749 0.1252679717 0.3223784721 0.8416795362 0.1387116433 0.3278999317 0.7707171057 0.1908865051 0.2038471279 0.7747342811 0.1947195055 0.2066776346 0.3426304559 0.1902174080 0.5344590518 0.3550256875 0.1906343361 0.5362028807 0.4140018614 0.2829444150 0.5664157883 0.9549028114 0.6061792448 0.3610204779 0.8663847448 0.6117988757 0.4001128716 0.8999182058 0.4790676426 0.3659224829 0.9022711377 0.4738060629 0.3628365110 0.8960233981 0.4718838634 0.3635570569 0.9027219336 0.3807537491 0.2926235974 0.8058010795 0.0773939619 0.5900183231 0.3432519438 0.9113997835 0.0686960112 0.3482572833 0.9041870022 0.0728550154 0.2973778107 0.8399045150 0.0897858335 0.2988442132 0.8343475316 0.0890977336 0.8006528223 0.6605806240 0.3595350638 0.6844030550 0.6155011028 0.3399599193 0.6751680959 0.6201206563 0.3384223784 0.1505762043 0.9040903150 0.4534404633 0.1568615586 0.9069192998 0.4543829309 0.1183446168 0.9135207598 0.2299883241 0.1206159100 0.9131854793 0.2376249053 0.2538572959 0.3186012351 0.1147669002 0.2556200884 0.3240395870 0.1154070837 0.2607361183 0.3190397674 0.1151264611 0.2621687484 0.3245779523 0.1156877147 0.2673283047 0.3190371643 0.1154436485 0.2631777179 0.3301141197 0.1161665100 0.2685362582 0.3247197544 0.1158622173 0.3468116831 0.2670684524 0.0577854485 0.2798042934 0.4118689591 0.0597691393 0.1971447500 0.4195475795
[...]
      <PointData Scalars="overlap">
        <DataArray type="Float32" Name="overlap" format="ascii">
 0.0002252410 0.0000175404 0.0002056932 0.0000271243 0.0000864916 0.0000330465 0.0000067439 0.0000516151 0.0002478031 0.0002506679 0.0001090776 0.0000484019 0.0000726978 0.0004920964 0.0000267526 0.0002309777 0.0000930444 0.0000060998 0.0000060416 0.0001283278 0.0000224341 0.0000488207 0.0000315980 0.0000308033 0.0000235577 0.0000097820 0.0001205231 0.0000833241 0.0001926299 0.0001202758 0.0000298922 0.0000287968 0.0000077583 0.0000869474 0.0002829131 0.0000290137 0.0001986491 0.0000834294 0.0000474090 0.0000985583 0.0001044481 0.0001689267 0.0000244262 0.0000129001 0.0001825088 0.0000522111 0.0000013699 0.0000530484 0.0001661406 0.0000599997 0.0000788616 0.0002213099 0.0000634875 0.0000339660 0.0000157306 0.0000085753 0.0000549234 0.0002887638 0.0001530593 0.0000507462 0.0001167938 0.0000162980 0.0000950974 0.0000948934 0.0000266031 0.0003200227 0.0000190892 0.0000904914 0.0000912388 0.0000192718 0.0000291808 0.0000605055 0.0000071107 0.0000864447 0.0000180739 0.0000016353 0.0000080351 0.0000089326 0.0000386277 0.0001854061 0.0000087362 0.0000307565 0.0002615701 0.0001143611 0.0000377957 0.0001249753 0.0000100442 0.0000136418 0.0000040262 0.0000156220 0.0000166242 0.0000397075 0.0000069935 0.0000393433 0.0000274030 0.0001009604 0.0001227009 0.0000460187 0.0000055779 0.0000080601 0.0000274912 0.0000243978 0.0000817470 0.0000440235 0.0000531201 0.0000486859 0.0000603011 0.0000762041 0.0000622082 0.0000973737 0.0000385542 0.0000568931 0.0000139155 0.0001102618 0.0000158199 0.0000253697 0.0001249662 0.0001381899 0.0001231438 0.0000799376 0.0001379976 0.0000155440 0.0000301145 0.0000372139 0.0000322609 0.0000592006 0.0000282824 0.0000085613 0.0000406167 0.0001086627 0.0000464387 0.0000187273 0.0000024229 0.0000394660 0.0000015694 0.0000123755 0.0000048913 0.0000333874 0.0000391044 0.0000603349 0.0000184998 0.0000167169 0.0000083584 0.0000068434 0.0000120004 0.0000223977 0.0000202703 0.0000126444 0.0000104065 0.0000260166 0.0000088182 0.0001698519 0.0000139310 0.0000453772 0.0000111142 0.0000460311 0.0001709231 0.0000240980 0.0001046066 0.0002025260 0.0000361683 0.0000388733 0.0001536697 0.0000026789 0.0000400985 0.0002874576 0.0000075700 0.0000179187 0.0000144322 0.0000429978 0.0000045093 0.0000128582 0.0000078735 0.0000746880 0.0000377058 0.0000592069 0.0000611040 0.0000359522 0.0000599164 0.0000173460 0.0000351155 0.0000002124 0.0000570429 0.0000125130 0.0000176612 0.0000519016 0.0000191827 0.0000531475 0.0000302752 0.0000300300 0.0000205154 0.0000077348 0.0000283573 0.0000114197 0.0000228341 0.0000144671 0.0000044180 0.0000259378 0.0000157001 0.0000056814 0.0000674722 0.0000369541 0.0000020108 0.0000129254 0.0000076167 0.0000005157 0.0000399712 0.0000107223 0.0000494372 0.0000638583 0.0000373148 0.0002481257 0.0000715611 0.0000078347 0.0000103793 0.0000074253 0.0000071268 0.0000117511 0.0000364198 0.0000336645 0.0000538037 0.0000648037 0.0000026785 0.0000081548 0.0000881357 0.0000310359 0.0000607866 0.0000854202 0.0000027029 0.0000074785 0.0000563710 0.0000903274 0.0000005336 0.0000288863 0.0000795613 0.0001168174 0.0003505721 0.0003212391 0.0000394875 0.0000251957 0.0001373803 0.0001621800 0.0000228711 0.0000386806 0.0000069188 0.0000152094 0.0000602848 0.0000175074 0.0000222802 0.0000122963 0.0000313062 0.0000744857 0.0000535246 0.0000058230 0.0000333532 0.0000231318 0.0000207523 0.0000333896 0.0000189162 0.0000230137 0.0000277350 0.0000618792 0.0000030276 0.0000056399 0.0000216422 0.0000017140 0.0000079596 0.0000690002 0.0002009781 0.0001002557 0.0000704464 0.0000618031 0.0000253551 0.0000529735 0.0000843877 0.0000197629 0.0000510746 0.0000227007 0.0001328344 0.0000052243 0.0000218390 0.0000398855 0.0000060120 0.0000130786 0.0000071439 0.0000120645 0.0000693461 0.0000463419 0.0000084419 0.0000061247 0.0000199879 0.0000510181 0.0000428460 0.0000048169 0.0000223037 0.0000264087 0.0000095911 0.0000018178 0.0000134072 0.0000581829 0.0001162164 0.0000070590 0.0000208449 0.0000300612 0.0000082308 0.0000234449 0.0000218272 0.0000727114 0.0000746524 0.0000793808 0.0000092397 0.0000793534 0.0000033221 0.0000341032 0.0000165428 0.0000031398 0.0000093372 0.0000223007 0.0000324132 0.0000314833 0.0000290228 0.0000209644 0.0000060732 0.0000220611 0.0000136305 0.0000218800 0.0000040253 0.0000588366 0.0000080918 0.0000053580 0.0000114651 0.0000608325 0.0000874019 0.0000142307 0.0000076705 0.0000050833 0.0000504870 0.0000601801 0.0000344963 0.0000375211 0.0000593781 0.0000511621 0.0000145207 0.0000059948 0.0000102700 0.0000046008 0.0000061835 0.0000087109 0.0000097882 0.0000055245 0.0000459208 0.0000166740 0.0000076686 0.0000326030 0.0000233733 0.0000007225 0.0000053747 0.0000594659 0.0000460858 0.0000198462 0.0000226174 0.0000419021 0.0000146268 0.0000078828 0.0000069512 0.0000335097 0.0000269794 0.0000106195 0.0000221361 0.0000403606 0.0000195185 0.0000137300 0.0000140695 0.0000066020 0.0000152003 0.0000079999 0.0000100538 0.0000155783 0.0000151596 0.0000045734 0.0000049198 0.0000517405 0.0000115634 0.0000604756 0.0000295537 0.0000314174 0.0000095020 0.0000183650 0.0000044743 0.0000028262 0.0000039903 0.0000649788 0.0000059673 0.0000313268 0.0000111704 0.0000235834 0.0000132517 0.0000245091 0.0001355781
        </DataArray>
        <DataArray type="Float32" Name="contact normal" NumberOfComponents="3" format="ascii">
 0.9747557612 -0.1893119140 -0.1183731607 0.1555723025 0.9312597069 0.3294732418 -0.0006371077 0.6164434878 -0.7873988954 -0.2103067430 0.7157949343 -0.6658893946 0.1103651999 -0.0480316743 -0.9927298126 0.2338434211 -0.1107124097 -0.9659503179 0.5992041965 -0.7720080784 -0.2120326810 -0.3785339243 0.6351393266 -0.6732830786 -0.3288766393 0.6782702177 -0.6571070444 -0.1641725898 -0.9501204909 -0.2651761934 -0.8558113124 0.4668479321 0.2228003724 -0.1400036934 -0.4491064623 0.8824411320 -0.1479998064 -0.4748821730 0.8675154057 -0.1169580452 -0.3830532435 0.9162919995 -0.0083257255 0.0626797236 -0.9979989652 0.0267975040 -0.0943973016 -0.9951738759 -0.8319734350 -0.0603933460 0.5515186734 -0.4684040302 0.3948203144 -0.7903888814 -0.3784751444 -0.4904647521 -0.7849846445 0.4266450478 -0.1496956540 0.8919446252 0.4063569583 -0.1798475744 0.8958397582 -0.6620789411 -0.1481351893 -0.7346478350 0.5876644739 -0.7239361471 0.3613404503 -0.6340935180 -0.2069781042 -0.7450405860 -0.0676080729 -0.3232802759 -0.9438850627 -0.7624913634 0.1937161703 -0.6173175570 0.3124772143 -0.0294294217 0.9494692726 -0.7342381591 -0.5295572741 0.4248098624 -0.7988559179 -0.6010907598 0.0227842244 -0.0013696151 -0.9554468685 0.2951599660 0.3770219207 0.7929136723 0.4786881863 0.3335679812 -0.6196517355 -0.7104675423 0.7209806274 0.5217087706 -0.4560777276 0.7537180382 0.4852869471 -0.4431768245 0.2852031392 0.6836231250 -0.6718024951 -0.4732837782 -0.4351855582 -0.7659086076 0.2186650786 -0.1884380008 -0.9574323492 -0.6235802178 0.7261395981 -0.2896014435 -0.5201691054 0.6631043656 0.5382533810 -0.1223147826 -0.0632323757 -0.9904750177 -0.3277450119 0.7301528350 0.5995498684 -0.7229386557 0.6861783428 0.0807402129 0.4062276109 -0.7683026308 -0.4946616981 0.4403020617 -0.7260589291 -0.5281784982 0.1714145971 0.2531706163 0.9521143182 -0.4363231871 -0.6609513885 0.6105451158 -0.9456346913 -0.3248602913 -0.0155184329 0.6139402826 -0.7892919520 0.0097746597 0.5989312747 -0.8008002658 0.0005123257 0.5472192042 0.8316359665 0.0945132888 0.4998108778 0.7782002191 -0.3802545271 0.0644269884 -0.3623479473 0.9298134911 0.7572575175 -0.0105287417 0.6530315443 0.1054422621 0.2945926858 0.9497879126 -0.1809032981 0.8143295328 -0.5514901711 -0.1033730658 0.6607667509 -0.7434388409 -0.0957141879 0.2005483752 -0.9749969966 -0.2508225935 0.5934660431 0.7647784530 0.4792888144 -0.4879537885 -0.7295089668 0.2611658655 -0.8734875066 0.4108673343 -0.4050276009 0.2950865250 -0.8653765569 -0.5610677022 0.6174399707 -0.5513355748 0.6796809129 -0.6364883580 -0.3645770519 0.1152705814 -0.2602808995 -0.9586274284 0.2785772718 -0.2555877218 -0.9257805464 -0.1151302212 -0.6947385625 0.7099882830 -0.1319855481 -0.1364277976 -0.9818183494 0.1889917528 -0.3259888973 0.9262901037 0.1771373057 -0.3355335238 0.9252240968 -0.3539000147 0.6917218787 -0.6295042670 -0.5815557244 -0.3308929087 0.7431707895 -0.6850124559 -0.6446805115 0.3393301833 -0.3519597842 0.0409977758 -0.9351168337 0.2481210842 0.1400650933 -0.9585497886 0.6234826581 0.3239643496 -0.7115591860 0.9444718791 -0.0566730022 0.3236681023 0.9482907611 0.0855582049 0.3056540954 -0.4734710568 0.6020957483 -0.6428886904 -0.5584101943 0.4656547356 0.6865447706 -0.4312454537 0.6832493091 0.5892348770 0.1343166872 0.8425417631 -0.5216151887 -0.6365651774 -0.7534985637 0.1643918774 0.0926931811 -0.3335344415 0.9381698943 0.0489971698 -0.2190343135 0.9744861450 0.3163053397 0.5396131897 -0.7802362063 0.7737778676 0.4542858771 0.4414659143 0.3336521816 0.5760572997 -0.7462132464 0.2731747929 0.6214759390 -0.7342637059 0.8864801518 0.4479930298 -0.1159964900 -0.3029139376 -0.8435908350 -0.4433933351 -0.2974527303 0.9482577432 0.1110365960 -0.3437131757 0.8246697563 0.4492004517 -0.8803517917 -0.1147578344 -0.4602296843 -0.2751920563 -0.8528873304 -0.4436806666 -0.0722244600 -0.8079356797 -0.5848278079 -0.2014297773 0.9574086254 0.2068689653 -0.5934936363 0.7299773179 0.3389666930 -0.3922045021 -0.5327731783 0.7498855706 0.3396613115 0.5385657422 -0.7710882795 0.3862881472 0.5406389082 -0.7473225798 0.3396465402 0.5385648604 -0.7710954019 0.3396425637 0.5385646230 -0.7710973193 0.1126241850 -0.4601027859 0.8806936013 0.1108312492 -0.4528063232 0.8846936576 -0.0838067874 -0.9413544424 -0.3268458905 0.7066995776 -0.6148240570 -0.3500958239 0.4599573852 -0.3548451035 -0.8139558688 -0.2235064849 0.1352029417 0.9652797604 -0.2231794848 0.1347973892 0.9654121304 -0.2230399409 0.1346247212 0.9654684714 -0.2232264919 0.1348556808 0.9653931213 -0.2225751757 0.1340480200 0.9656559530 -0.2236671762 0.1354022432 0.9652146014 -0.2227681838 0.1342876620 0.9655781481 -0.2224652041 0.1339116627 0.9657002121 -0.1802075128 0.0818511029 0.9802171439 -0.2226737310 0.1341815595 0.9656146843 -0.2226584880 0.1344147101 0.9655857722 -0.2230717911 0.1349940838 0.9654095366 0.1669233035 -0.3145202349 -0.9344590053 -0.2215176777 0.1354738922 0.9657001310 0.2534592558 -0.2169800219 -0.9426972344 0.2505243823 -0.2101587154 -0.9450242580 0.4823456125 -0.3851684215 -0.7867579025 0.7374709300 0.4353330740 0.5163542796 0.4636756951 0.3371314071 -0.8193578364 0.8230570851 -0.5670187087 -0.0326621918 0.2197728486 -0.1326026963 -0.9664969839 0.2253277967 -0.1300533641 -0.9655638283 0.2248745032 -0.1264200563 -0.9661518655 0.2037524396 -0.0979191152 -0.9741133354 0.2245793011 -0.1254474041 -0.9663472907 0.1756560078 -0.7374301199 0.6521823251 0.1958817272 0.1959954230 0.9608413725 -0.0155790881 0.4234322531 -0.9057938060 -0.0707343007 0.3607702387 -0.9299685444 -0.1004552223 0.3256072086 -0.9401535481 -0.0743086510 0.1549461605 -0.9851243128 -0.3376748364 0.8585540702 0.3858245888 0.1560714505 -0.5231904069 0.8378027814 -0.3066329110 -0.9367098516 -0.1689701508 0.9258926205 0.1042685574 -0.3631128245 0.5340549885 0.5979770272 0.5976694271 -0.6750377866 -0.6277305890 -0.3876574445 -0.9195420243 0.3290304184 -0.2148986954 0.0689894775 -0.6885783036 0.7218728225 0.0714547085 -0.6715879210 0.7374712801 0.0633652562 -0.3692004878 0.9271870599 0.4348800035 0.8794771386 -0.1933891031 -0.3197014289 -0.5168006022 -0.7941713505 0.2726866158 0.5234821526 -0.8072226740 -0.0187485783 0.0079269260 0.9997928059 -0.0187584817 0.0079571925 0.9997923797 0.0753915992 -0.0381790612 0.9964228350 0.2195188155 -0.5921840500 -0.7753254417 -0.1204670100 0.3287107213 -0.9367160515 -0.1204801946 0.3287215880 -0.9367105424 0.2194902659 -0.5919960938 -0.7754770455 -0.1204918640 0.3287312054 -0.9367056663 0.1357875163 -0.0261340707 0.9903932354 0.2192799020 -0.5917300052 -0.7757395990 0.2181295753 -0.5917910443 -0.7760172990 -0.3180756982 -0.8153314062 0.4838001118 -0.2059581876 0.1752068212 0.9627480432 -0.8647631668 0.4792093870 -0.1501433606 -0.0545660482 0.3320564709 0.9416799066 -0.6879666279 0.4288372450 -0.5854917046 -0.0387222857 -0.7615587326 -0.6469380815 0.1346995010 -0.2781058782 -0.9510589703 0.6640571575 0.3246298600 -0.6735306567 -0.2386510228 -0.2963206645 0.9247917350 -0.1923038829 -0.3520421212 -0.9160161361 -0.1771647882 -0.3510679709 -0.9194367393 -0.1801684393 -0.3565759952 -0.9167294547 -0.8774167359 0.4309648617 0.2107348085 -0.5001429019 0.4190805765 -0.7577786933 0.5889340181 -0.5446839263 -0.5970562309 0.2175105228 -0.1596649446 -0.9629103167 0.9732610495 0.2296978826 0.0013461653 -0.6193143132 0.5275475633 -0.5815009458 0.9097934563 -0.4077802708 0.0774023106 0.6530858404 0.0527814193 -0.7554422591 0.1090896247 0.9771243734 0.1825579705 -0.6847299820 -0.2364560694 0.6893717278 -0.6894295045 -0.2314259113 0.6863883783 -0.6822138230 -0.2397813874 0.6907164295 -0.6643650069 -0.2351693369 0.7094466299 0.4877481061 -0.4803066865 -0.7289768665 0.7528398644 -0.6492572285 -0.1081535476 0.0332295685 0.4261969145 0.9040199035 -0.6546443245 0.4064702162 0.6373560793 -0.0727067569 -0.4846323731 -0.8716909948 -0.5033511190 -0.6987140022 0.5083663975 0.3390150241 0.2884274650 -0.8954766389 -0.2373867920 0.0128334680 -0.9713304345 -0.2615758049 -0.0587913820 -0.9633907160 0.7522853125 0.2694534144 0.6012168212 0.1439981516 -0.6094725246 0.7796202756 -0.4401280803 0.8365770460 0.3262301628 0.2696944496 0.7976528066 0.5394579723 0.2716267223 0.8386185975 0.4721628657 0.2090921367 0.6355635487 -0.7431954345 -0.3845826654 0.7536676069 -0.5329927877 -0.2919748701 0.6684396149 0.6840607842 -0.2518876787 0.6666788950 0.7014925860 -0.8247805452 0.4462192409 0.3473117351 -0.1772983582 0.9573742243 0.2280348369 0.3002257161 0.5922455966 -0.7477363657 0.2806544917 0.5827379242 -0.7626595361 -0.2984396625 0.4463299296 -0.8436369846 -0.3000417039 0.4872087540 -0.8201235309 -0.1923659143 -0.5414371844 0.8184382263 -0.1957696471 -0.5312649414 0.8242765357 -0.4403318666 0.6284717876 -0.6411950245 0.0843772798 0.9896453344 0.1161145413 -0.6559042232 -0.6631181472 0.3606438309 -0.6477085926 -0.7391586637 -0.1847107168 0.6216516884 -0.6939985500 -0.3632013091 -0.4377011100 0.6554023269 -0.6155205343 -0.1216572833 0.3523886995 -0.9279125551 -0.2329549174 0.2568614875 -0.9379521218 -0.4786208095 0.7628190833 -0.4347748461 -0.1737039004 0.6567052406 0.7338700035 -0.7734229050 -0.6004254123 -0.2032395985 -0.7640760603 -0.6230908364 -0.1671693262 0.2986755363 0.2188558064 -0.9289214499 0.2974128233 0.2166329415 -0.9298471816 -0.2439372816 0.3579356023 -0.9013194258 0.3978124752 0.4542181178 -0.7971393454 0.3423462603 0.4963753464 -0.7977534416 -0.3679624358 0.7958022942 0.4809390339 -0.3649439071 0.8040817338 0.4693277215 -0.8854928963 0.3731739157 0.2768457317 -0.8869885357 0.3678067163 0.2792302937 0.0322025273 0.0956248984 -0.9948964147 0.0299025903 0.0983265028 -0.9947048476 0.0681923953 0.0531654908 -0.9962545999 0.0336691792 0.0939403855 -0.9950083368 0.0706229730 0.0502743901 -0.9962353544 0.0314987951 0.0964976862 -0.9948346709 0.0697314127 0.0513376798 -0.9962439323 -0.9735282912 0.2172815101 0.0709324446 -0.4238745993 -0.7489771432 -0.5092774912 0.4890284780 -0.6031944810 0.6300853639 0.0011446207 0.0684549931 -0.9976535490 0.1759364261 -0.2961182509 -0.9388079439 0.5084302701 -0.3526593935 -0.7855762297 0.1803350786 -0.9835923964 -0.0050256504 0.9711410659 -0.0971708263 -0.2178138211 -0.2651209578 -0.9614119307 0.0734709281 -0.2908618419 -0.5680927215 0.7698506665 0.6003689055 -0.1235700514 -0.7901187377 0.4877572585 0.4212439931 0.7646217072 -0.0680066775 -0.9155793884 -0.3963451468 -0.1219446109 0.3803805863 -0.9167552135 0.3198534278 -0.2090739183 0.9241114010 -0.6040769296 -0.0347609358 -0.7961675329 -0.2391610137 -0.6359410943 0.7337444610 -0.2315502766 -0.6370170753 0.7352507838 0.8045636473 -0.5925177110 0.0400012445 0.5654645724 -0.0073255092 0.8247400525 0.0996604505 0.7560927316 0.6468319533 -0.1534742378 0.6421882689 -0.7510258887 0.7465922203 0.1815144070 -0.6400410742 0.1414889979 -0.5278149356 -0.8374916461 -0.6001560458 -0.5560288717 -0.5750170558 -0.2655270904 0.5367717649 -0.8008566892 -0.8479723583 -0.3158348268 -0.4256656456 -0.7710804464 -0.1248548537 -0.6243766577 0.3590310299 0.2544346776 -0.8979753417 0.3517998373 0.2536812368 -0.9010453399 0.3589459249 0.2544597919 -0.8980022479 0.4646792657 -0.0593380266 0.8834886409 -0.0937024655 -0.1858333183 -0.9781031775 -0.0848826172 -0.1981136007 -0.9764967703 -0.1139206502 -0.6161848419 -0.7793191426 0.0885978385 0.1653860990 0.9822412439 0.7157451500 -0.2994709169 -0.6308930576 0.8781472079 0.0218798379 0.4778898973 0.4081484404 0.9091550810 -0.0827761396 0.9198143184 -0.1472124765 -0.3636895743 0.4277950963 0.5480229110 -0.7187922124 0.4394601812 0.5374376505 -0.7197468450 -0.0485471164 -0.6506534446 0.7578213988 -0.0481453856 -0.6506581868 0.7578429559 -0.0497879032 -0.6508236433 0.7575947135 -0.0495899949 -0.6508271643 0.7576046691 -0.0496822091 -0.6508520523 0.7575772463 0.3639486653 -0.0156235615 -0.9312879648 0.9432775488 0.2503016013 -0.2181205499 -0.4285707944 0.5269146216 0.7339537150 -0.4289618199 0.5264889920 0.7340307203 -0.4345252192 0.5250854909 0.7317602483 -0.7262223805 0.3025925986 0.6172833817 -0.0362778043 0.2405699969 -0.9699536059 0.0041137008 0.2892695346 -0.9572388489 0.0163371572 0.3096390142 -0.9507138256 0.2013719143 0.3973492514 -0.8953004661 0.1078221390 0.8494440577 -0.5165454279 -0.3692987697 -0.1432368951 -0.9182056472 -0.2699969226 0.0784223330 -0.9596622320 -0.3530758249 -0.2886990794 0.8899383706 -0.3215941175 -0.9253114441 -0.2009376895 0.2932611121 -0.5837306220 -0.7571370293 -0.0298859125 -0.6451728404 -0.7634519227 0.2668484335 0.3719991045 -0.8890492561 0.3191494329 0.1144525211 -0.9407679097 -0.3964150190 0.0135412959 -0.9179715497 -0.3971643781 0.0123336278 -0.9176646111 -0.3732074861 0.0502621825 -0.9263853870 -0.3734250020 0.0499708468 -0.9263134903 0.1842391422 -0.3894874913 0.9024164408 -0.2693538781 0.0358340160 -0.9623743615 -0.2119721592 0.0192438646 -0.9770862180 -0.0860987577 -0.1622343998 0.9829888114 0.6306046558 -0.6960881665 -0.3432186366 0.6343348618 -0.6934318101 -0.3417186093 -0.2452337134 0.8945668092 -0.3736450853 -0.4035237268 0.9128089455 0.0628365411 -0.5503007833 -0.7400325060 0.3866793736 0.1735312744 0.3615626104 -0.9160564260 0.1744388536 0.3463887703 -0.9217298445 0.3688384127 -0.7351878050 -0.5687329045 -0.4895661817 -0.5444984244 -0.6810627134 0.0874880262 0.4826752563 0.8714186378 0.0729870827 0.4577592939 0.8860752308 0.2545754587 0.7718863946 -0.5825656441 0.2177934140 0.8018498996 -0.5564195965 -0.1614249181 -0.9838727112 0.0770485819 -0.0928348145 0.9011141990 0.4235267377 -0.4452316723 -0.8639922876 -0.2351299322 0.7007691819 -0.1018079992 0.7060861739 0.7781023466 -0.0149221977 0.6279602426 -0.1273851544 -0.6337182841 0.7630033806 -0.1228726769 -0.6298750016 0.7669157630 -0.1273539661 -0.6337433801 0.7629877427 -0.1228425313 -0.6299744277 0.7668389225 -0.1228996156 -0.6300223828 0.7667903766 -0.0929984329 -0.6040546945 0.7914980843 -0.1219976087 -0.6310551427 0.7660848454 -0.0935406302 -0.6037211468 0.7916886556 -0.0934192551 -0.6036257212 0.7917757457 -0.0310405831 0.6016999419 0.7981188271 0.5127618819 0.8091990099 -0.2868313353 0.9208302441 0.2509971484 0.2984494816 -0.0789482034 0.2649939443 -0.9610126902 -0.0745145436 0.2682578134 -0.9604609978 -0.0701910950 0.2713672563 -0.9599130286 0.3275291225 0.4936583580 -0.8056215610 0.6858907287 0.7189491693 0.1125433257 -0.1523939607 -0.6449720637 0.7488572078 -0.1524420970 -0.6449500411 0.7488663777 -0.1524555597 -0.6449476978 0.7488656552 -0.1524074570 -0.6449532157 0.7488706942 -0.1524380925 -0.6449497094 0.7488674785 -0.1524580620 -0.6449473879 0.7488654126 -0.1524548111 -0.6449477624 0.7488657519 -0.1523883004 -0.6449554216 0.7488726928 -0.1524033324 -0.6449536906 0.7488711246 0.0626339023 0.755248136