<?xml version="1.0"?>
<VTKFile type="UnstructuredGrid" version="0.1" byte_order="LittleEndian">
  <UnstructuredGrid>
    <FieldData>
      <DataArray type="Float32" Name="TIME"  NumberOfTuples="1" format="ascii"> 4.5500000000 </DataArray>
      <DataArray type="Int32"   Name="STEP"  NumberOfTuples="1" format="ascii"> 455000 </DataArray>
    </FieldData>
    <Piece NumberOfPoints="399" NumberOfCells="399">
      <Points>
        <DataArray type="Float32" NumberOfComponents="3" format="ascii">
 0.4248653486 0.2068252237 0.0759428554 0.5299832404 0.1286325558 0.0400907172 0.5050733062 0.1472905937 0.1825916271 0.6403307150 0.1082661480 0.1124597086 0.5396123897 0.3646965525 0.2040005609 0.5528625128 0.3591023354 0.2072264621 0.5678908206 0.4472842423 0.1939268413 0.7522014670 0.1787389619 0.1457377626 0.7585132426 0.1855914829 0.1501548119 0.6781370461 0.4551488281 0.1694659007 0.8496088078 0.2321591172 0.1150672083 0.7816290852 0.3733975782 0.0369726735 0.7953317220 0.3703146033 0.0373492096 0.8168259537 0.3857433908 0.0431750011 0.8042875195 0.3963505469 0.2240355163 0.8177013404 0.3880442460 0.2261939970 0.8970056129 0.3686628610 0.1723158948 0.7489577594 0.3245511024 0.6726887181 0.7715937881 0.2992914595 0.6582630575 0.7860264456 0.3638995669 0.5621515181 0.8677399584 0.6052378954 0.5111380935 0.9118154741 0.5556479029 0.5587195241 0.8933346857 0.6065771906 0.4947004687 0.9262234140 0.5446453024 0.5458335098 0.9417328526 0.3093612130 0.5254665158 0.9349241629 0.3343195618 0.5344032866 0.9466583818 0.4740610735 0.4508192839 0.2426831658 0.7997982037 0.0414070412 0.2550042670 0.8173391848 0.0914574743 0.0745409090 0.9091235858 0.1097901965 0.1543236815 0.7223194656 0.0815085631 0.0388482234 0.8885766959 0.1662303358 0.0554833100 0.8047838480 0.1553460856 0.0622454599 0.7985057601 0.1588803703 0.1716657943 0.7198410646 0.1453822864 0.1846703768 0.8263777339 0.1958309552 0.5696628967 0.7614159424 0.2455270685 0.6836959844 0.7584631677 0.2617670879 0.6518273630 0.7389198759 0.1620807008 0.7064500785 0.8129145325 0.2796417941 0.6573955667 0.7424563911 0.1621259749 0.6559153104 0.7439887980 0.1560627663 0.6050545785 0.8504648466 0.2446689105 0.6094914690 0.8548459648 0.2417823920 0.5207963905 0.7623147053 0.0984627111 0.7326508449 0.8581094576 0.2193672234 0.7273898204 0.8568455875 0.2066725337 0.5647764833 0.8549310736 0.1613300624 0.5655441659 0.8555397935 0.1539493902 0.1730880036 0.4807040727 0.3236701287 0.1676980529 0.4846857680 0.4415923276 0.1372092803 0.6603892600 0.2434470267 0.0843620372 0.6890418734 0.2636711060 0.1610016811 0.6613731443 0.2414227204 0.2576849083 0.4522145440 0.3447858834 0.2908210466 0.4616809539 0.4187211418 0.2909888304 0.5655092241 0.4523282386 0.3086335986 0.4589966219 0.2813313924 0.1182088562 0.7733038174 0.4080898922 0.2713210498 0.7854265144 0.2555507958 0.4240761270 0.5343443189 0.4164810677 0.4308568479 0.5455603581 0.4205657568 0.2460008321 0.8876087644 0.3715553342 0.3711236616 0.8402717473 0.4486931784 0.3884544056 0.8571710169 0.4473813798 0.4440475349 0.9114116237 0.2749310455 0.5616932462 0.7792375547 0.4616563678 0.7554633278 0.3393614821 0.5253680363 0.7491424641 0.3251156782 0.5221870334 0.7310391659 0.1923225582 0.5211129836 0.6605267093 0.0750020359 0.2089066486 0.6490921735 0.1078240809 0.2421729852 0.6082326568 0.1071848346 0.3161804954 0.5368084251 0.0942197764 0.3297715874 0.6497667935 0.8867022705 0.4452709998 0.6558280976 0.9007450576 0.3525090877 0.6572075267 0.9097056839 0.3464139823 0.7437353505 0.9446356991 0.5283421526 0.6975289621 0.9102989807 0.3310050775 0.7118970070 0.2412322212 0.2823340070 0.6923341301 0.1618251043 0.4376719543 0.7639626521 0.3793129764 0.3440296982 0.7707361164 0.3872252510 0.3523736275 0.5690856737 0.3189431347 0.3113889075 0.5335515737 0.2357772963 0.4478714243 0.4819230116 0.2672510711 0.3471238624 0.4709348980 0.3273644226 0.5039584959 0.4582438396 0.3355683629 0.5055501506 0.3861281394 0.4139791539 0.4441323302 0.5795575752 0.5972596777 0.5628789884 0.1272840371 0.2954920644 0.0794078775 0.1210212306 0.2920255186 0.0845415144 0.1781403010 0.3772359127 0.0528339125 0.1491838695 0.4388042846 0.0568121837 0.0950510731 0.4146552571 0.1045545710 0.2077569829 0.4386273027 0.0527656572 0.1964209077 0.4344284030 0.0567130471 0.2718644047 0.5419336899 0.0599525343 0.1116350169 0.4730195689 0.1348032313 0.1123438096 0.4827923994 0.1420335820 0.1047361936 0.4920111887 0.1450386506 0.0995440524 0.5073281664 0.1534456158 0.1196634956 0.6091642840 0.0768631554 0.1243074481 0.6141213749 0.0785438885 0.0731065513 0.6660885448 0.2039456494 0.0764847596 0.6738817191 0.1942221191 0.1368993406 0.3952856096 0.2410302591 0.2422134111 0.3041290156 0.2229843927 0.2365967721 0.2958150613 0.2228485977 0.2487070416 0.3044898584 0.2244119490 0.2293357076 0.2902092329 0.2219682237 0.2433833644 0.2948293330 0.2245374263 0.2197446588 0.2869282924 0.2202321900 0.2548634218 0.3066654846 0.2255146955 0.2368435856 0.2880812041 0.2239871143 0.2496215080 0.2953274086 0.2258876937 0.2609601633 0.3107895669 0.2263360039 0.2673068468 0.3172670490 0.2268946024 0.2743127740 0.3269065462 0.2271855000 0.0603282138 0.3238591833 0.2405524418 0.2818534229 0.3248940409 0.2291694169 0.2734196714 0.3270487894 0.3139744549 0.2819440616 0.3344276982 0.3145355012 0.0744062390 0.2508625872 0.2704874189 0.0724366781 0.1488440845 0.2300772352 0.1130166460 0.0685983183 0.2994129976 0.1289108484 0.0610859540 0.3107435934 0.2422534926 0.1318701617 0.3407275115 0.2508580267 0.1370575251 0.3419974350 0.2667439045 0.1556162873 0.3433603467 0.2741730425 0.1652457047 0.3438922236 0.2824441760 0.1696901982 0.3451598945 0.8679177977 0.1866464412 0.4388063651 0.8336806526 0.1057840609 0.4125785525 0.7587830606 0.1533909533 0.5977295297 0.7548285237 0.1422541532 0.5935164642 0.7470138832 0.1331147808 0.5912832941 0.2973185786 0.2801240212 0.5031615124 0.2898205897 0.2700270075 0.4140874657 0.2535001338 0.3450425996 0.3698631480 0.3102816646 0.3803418617 0.4286199771 0.6312896011 0.7388025807 0.5144391351 0.6934332894 0.6467628776 0.3835487906 0.7179971564 0.8411230535 0.5228723883 0.7601125172 0.7119195069 0.4431574808 0.7150676340 0.7763953658 0.3773380612 0.7224915276 0.7765642277 0.3764745508 0.7217485533 0.7830361476 0.3798927885 0.5481881204 0.5178811079 0.2034166160 0.6016770928 0.5231818762 0.2544421603 0.6024649755 0.5427589320 0.2596856632 0.6200437214 0.5473504512 0.0836204764 0.6262679664 0.5623855033 0.0836988411 0.6399069111 0.5592326012 0.0832588669 0.7413567698 0.6640248445 0.2510471427 0.8187176194 0.4748237956 0.2427188540 0.8265618446 0.4850382389 0.2453613618 0.7524094710 0.6663459631 0.2524260415 0.8342695096 0.4949641262 0.2478052973 0.7588456755 0.7526339704 0.1137497623 0.7644307363 0.6690104810 0.2538322000 0.7782260008 0.6723032933 0.2552956569 0.8026218125 0.7665641990 0.1615337993 0.8794311668 0.6238429679 0.0942662280 0.9217431718 0.5592534739 0.1912943372 0.8981104968 0.6354671589 0.0942526863 0.9265942373 0.6781195361 0.2684888530 0.9125152428 0.7262491587 0.2334567274 0.9396907473 0.6711484858 0.2630038339 0.3658526544 0.5765588549 0.0833476884 0.4803349255 0.7324424395 0.0279599361 0.4430329627 0.6659639608 0.0961070235 0.4495917264 0.6639640653 0.0952666028 0.4523357464 0.6598793083 0.0965931107 0.3894146863 0.1711524790 0.4216737786 0.3343299675 0.0835969608 0.4717569705 0.1711625084 0.1840704441 0.3885515265 0.2163980582 0.1306974996 0.4587595834 0.1403165135 0.0872430173 0.4244189528 0.9285704725 0.4500576536 0.5810539032 0.2542664192 0.1549629311 0.0768234471 0.2905349318 0.1241720091 0.1289598513 0.3212510811 0.0796910134 0.1134318410 0.3626134065 0.1664948210 0.0989904692 0.3618114308 0.1720327720 0.1001069026 0.3650571076 0.1699174423 0.1024746662 0.3680817146 0.1736260944 0.1065970551 0.3291197799 0.2036816142 0.1572353235 0.3370098640 0.2091288281 0.1616357167 0.0617466841 0.1503423157 0.5058001256 0.1851544568 0.1663337529 0.5386192326 0.1499010315 0.2658905405 0.5712995410 0.1483449024 0.2522242613 0.4787909681 0.0408594043 0.9382737325 0.1632796533 0.1579121066 0.9508841184 0.1726204057 0.1685811977 0.9468865042 0.1683302931 0.4623076045 0.4848407074 0.1661080370 0.4577480638 0.4752227536 0.1662387162 0.5258207310 0.3954499581 0.2669790241 0.8807305322 0.5610003033 0.0484157688 0.8724848290 0.5657487701 0.0455651204 0.8788721799 0.5639568696 0.0436098022 0.9528858585 0.5564837769 0.0824622720 0.0848619020 0.9509146521 0.2972595279 0.0909311212 0.9527344412 0.2984105210 0.1709229637 0.9291511723 0.3642657045 0.7712013148 0.0774324897 0.2849991121 0.7320445050 0.0975390810 0.3049635191 0.7245536170 0.0995461047 0.3031239801 0.8351613146 0.1252679041 0.3223784575 0.8416794673 0.1387116045 0.3278998641 0.7707172764 0.1908858256 0.2038467630 0.7747344451 0.1947188354 0.2066772661 0.3426274746 0.1902179868 0.5344580600 0.3550227397 0.1906348438 0.5362017028 0.4139998607 0.2829447487 0.5664135885 0.9549011488 0.6061796263 0.3610204504 0.8663830285 0.6117986257 0.4001127612 0.8999173089 0.4790677463 0.3659221331 0.9022703155 0.4738061430 0.3628361488 0.8960225912 0.4718838810 0.3635567357 0.9027217662 0.3807539442 0.2926231445 0.8058048718 0.0773917817 0.5900191383 0.3432511837 0.9113997299 0.0686958998 0.3482565217 0.9041869444 0.0728548954 0.2973775178 0.8399041708 0.0897858105 0.2988439530 0.8343471941 0.0890977243 0.8006525048 0.6605803554 0.3595346095 0.6844026468 0.6155008150 0.3399598851 0.6751677122 0.6201204003 0.3384223043 0.1505753124 0.9040895455 0.4534406238 0.1568607039 0.9069185114 0.4543829487 0.1183441271 0.9135208807 0.2299884200 0.1206153844 0.9131855575 0.2376250102 0.2538575893 0.3186005270 0.1147664964 0.2556203712 0.3240388800 0.1154066978 0.2607364116 0.3190390626 0.1151260968 0.2621690294 0.3245772522 0.1156873614 0.2673285970 0.3190364680 0.1154433163 0.2631779892 0.3301134218 0.1161661714 0.2685365419 0.3247190584 0.1158618985 0.3468123312 0.2670681821 0.0577853675 0.2798047479 0.4118685407 0.0597694369 0.1971451894 0.4195477424
[...]
      <PointData Scalars="overlap">
        <DataArray type="Float32" Name="overlap" format="ascii">
 0.0002254811 0.0000175517 0.0002058820 0.0000272431 0.0000866123 0.0000333718 0.0000068564 0.0000517252 0.0002479306 0.0002508374 0.0001091384 0.0000486683 0.0000729573 0.0004923784 0.0000270783 0.0002312757 0.0000930648 0.0000060576 0.0000061200 0.0001282853 0.0000225477 0.0000492090 0.0000314026 0.0000303538 0.0000236755 0.0000097170 0.0001206875 0.0000834285 0.0001926859 0.0001200676 0.0000300777 0.0000288550 0.0000077037 0.0000869530 0.0002830399 0.0000288796 0.0001996457 0.0000835306 0.0000472432 0.0000983098 0.0001042281 0.0001687023 0.0000241878 0.0000127801 0.0001833086 0.0000524482 0.0000014493 0.0000530272 0.0001662185 0.0000602211 0.0000791569 0.0002215186 0.0000634506 0.0000342345 0.0000158565 0.0000084470 0.0000552435 0.0002890221 0.0001527500 0.0000510466 0.0001171687 0.0000167573 0.0000947271 0.0000952466 0.0000258703 0.0003202682 0.0000194176 0.0000906126 0.0000908111 0.0000192407 0.0000291985 0.0000607449 0.0000072459 0.0000864155 0.0000182788 0.0000016633 0.0000080949 0.0000088550 0.0000386253 0.0001858850 0.0000087906 0.0000307497 0.0002617986 0.0001148086 0.0000374453 0.0001252088 0.0000100163 0.0000137044 0.0000041014 0.0000158383 0.0000165742 0.0000396839 0.0000070280 0.0000394551 0.0000271658 0.0001011650 0.0001229026 0.0000460503 0.0000056364 0.0000081027 0.0000276097 0.0000245600 0.0000821092 0.0000444035 0.0000529336 0.0000486225 0.0000602647 0.0000762366 0.0000621889 0.0000974438 0.0000384805 0.0000569095 0.0000137810 0.0001103722 0.0000157824 0.0000254259 0.0001251215 0.0001383968 0.0001234126 0.0000800033 0.0001383074 0.0000157468 0.0000303062 0.0000371204 0.0000325295 0.0000592208 0.0000283515 0.0000085705 0.0000406201 0.0001086458 0.0000464186 0.0000186948 0.0000024511 0.0000396081 0.0000015886 0.0000123561 0.0000048969 0.0000335226 0.0000389933 0.0000605430 0.0000185489 0.0000168054 0.0000082723 0.0000067686 0.0000121146 0.0000222514 0.0000203212 0.0000126667 0.0000104045 0.0000258893 0.0000088556 0.0001699855 0.0000140684 0.0000454745 0.0000110896 0.0000460814 0.0001709591 0.0000240906 0.0001046288 0.0002023995 0.0000361799 0.0000389070 0.0001534513 0.0000029693 0.0000397850 0.0002877312 0.0000076108 0.0000180375 0.0000144678 0.0000431890 0.0000044450 0.0000130664 0.0000080238 0.0000748184 0.0000377205 0.0000594693 0.0000611938 0.0000358785 0.0000602638 0.0000172566 0.0000352241 0.0000001082 0.0000570737 0.0000125284 0.0000175137 0.0000518406 0.0000190882 0.0000527891 0.0000302748 0.0000300002 0.0000204971 0.0000078216 0.0000284942 0.0000113697 0.0000229014 0.0000146224 0.0000044501 0.0000260164 0.0000157677 0.0000056349 0.0000674427 0.0000368414 0.0000021036 0.0000127202 0.0000078271 0.0000001893 0.0000400687 0.0000106133 0.0000493395 0.0000639729 0.0000374323 0.0002482082 0.0000716610 0.0000078593 0.0000103617 0.0000072448 0.0000071520 0.0000117909 0.0000366375 0.0000338225 0.0000538530 0.0000648751 0.0000026826 0.0000081251 0.0000882382 0.0000310320 0.0000607614 0.0000854042 0.0000025870 0.0000074994 0.0000559509 0.0000901762 0.0000004883 0.0000287747 0.0000797087 0.0001170083 0.0003507230 0.0003214445 0.0000396490 0.0000254439 0.0001375907 0.0001622535 0.0000229713 0.0000388206 0.0000069727 0.0000152683 0.0000603288 0.0000176589 0.0000220496 0.0000122323 0.0000311936 0.0000745324 0.0000535456 0.0000058195 0.0000330945 0.0000231395 0.0000208157 0.0000334468 0.0000189503 0.0000232259 0.0000275819 0.0000620091 0.0000031555 0.0000056647 0.0000215704 0.0000014164 0.0000081327 0.0000690123 0.0002010957 0.0001004218 0.0000705223 0.0000618130 0.0000254346 0.0000532434 0.0000846024 0.0000197391 0.0000507893 0.0000228324 0.0001329050 0.0000053244 0.0000218361 0.0000399333 0.0000061337 0.0000134651 0.0000073768 0.0000122163 0.0000692737 0.0000459439 0.0000086166 0.0000062457 0.0000203606 0.0000509450 0.0000422844 0.0000044306 0.0000223389 0.0000264498 0.0000096499 0.0000018968 0.0000134168 0.0000581609 0.0001163197 0.0000070129 0.0000207951 0.0000300811 0.0000081658 0.0000234615 0.0000218555 0.0000728695 0.0000745148 0.0000794973 0.0000090827 0.0000792036 0.0000033677 0.0000339648 0.0000164494 0.0000035619 0.0000090695 0.0000222256 0.0000323718 0.0000315001 0.0000289966 0.0000209426 0.0000060259 0.0000219475 0.0000136951 0.0000218616 0.0000040579 0.0000588726 0.0000081295 0.0000051832 0.0000114656 0.0000607283 0.0000875540 0.0000141686 0.0000074925 0.0000051143 0.0000504054 0.0000601930 0.0000344005 0.0000376275 0.0000593742 0.0000512505 0.0000146918 0.0000059087 0.0000104509 0.0000043375 0.0000065883 0.0000086019 0.0000098073 0.0000055024 0.0000459223 0.0000166864 0.0000076902 0.0000326897 0.0000234034 0.0000007951 0.0000054367 0.0000595042 0.0000461395 0.0000197559 0.0000226593 0.0000419149 0.0000146799 0.0000079907 0.0000069498 0.0000337225 0.0000269850 0.0000105527 0.0000221228 0.0000404450 0.0000195032 0.0000138712 0.0000139376 0.0000066298 0.0000152006 0.0000080352 0.0000100988 0.0000157070 0.0000150163 0.0000046022 0.0000049591 0.0000517007 0.0000115875 0.0000606664 0.0000295856 0.0000317337 0.0000089697 0.0000186568 0.0000046124 0.0000027672 0.0000039075 0.0000651141 0.0000061662 0.0000313687 0.0000109394 0.0000235925 0.0000130926 0.0000245778 0.0001357487
        </DataArray>
        <DataArray type="Float32" Name="contact normal" NumberOfComponents="3" format="ascii">
 0.9747543501 -0.1893206624 -0.1183707895 0.1555829896 0.9312608535 0.3294649544 -0.0006369719 0.6164468776 -0.7873962417 -0.2103087396 0.7157923203 -0.6658915740 0.1103557698 -0.0480244496 -0.9927312105 0.2338335699 -0.1107069097 -0.9659533331 0.5992117862 -0.7720016211 -0.2120347432 -0.3785363781 0.6351392700 -0.6732817524 -0.3288789936 0.6782702889 -0.6571057927 -0.1641728154 -0.9501193044 -0.2651803050 -0.8558114195 0.4668469168 0.2228020883 -0.1400020761 -0.4491025349 0.8824433873 -0.1479979172 -0.4748775423 0.8675182628 -0.1169569189 -0.3830504668 0.9162933040 -0.0083267522 0.0626850877 -0.9979986197 0.0267982781 -0.0943924823 -0.9951743122 -0.8319756979 -0.0603925703 0.5515153448 -0.4684010754 0.3948306884 -0.7903854503 -0.3784753476 -0.4904531996 -0.7849917644 0.4266832116 -0.1496720833 0.8919303249 0.4063657499 -0.1798418630 0.8958369169 -0.6620668630 -0.1481324828 -0.7346592655 0.5876560270 -0.7239428092 0.3613408403 -0.6340807817 -0.2069750539 -0.7450522729 -0.0676152087 -0.3232679993 -0.9438887562 -0.7624902889 0.1937241402 -0.6173163831 0.3124909582 -0.0294198300 0.9494650466 -0.7342340510 -0.5295614195 0.4248117952 -0.7988498239 -0.6010986466 0.0227898210 -0.0013712428 -0.9554460953 0.2951624614 0.3770200557 0.7929088895 0.4786975774 0.3335759191 -0.6196473183 -0.7104676679 0.7209788323 0.5217131702 -0.4560755325 0.7537166793 0.4852912017 -0.4431744768 0.2852126359 0.6836278175 -0.6717936882 -0.4732850545 -0.4351840782 -0.7659086599 0.2186497494 -0.1884208239 -0.9574392305 -0.6235802394 0.7261396231 -0.2896013341 -0.5201703388 0.6631033440 0.5382534476 -0.1223017044 -0.0632381515 -0.9904762639 -0.3277454045 0.7301531141 0.5995493139 -0.7229381797 0.6861788375 0.0807402706 0.4062233666 -0.7683100233 -0.4946537017 0.4402998458 -0.7260662933 -0.5281702221 0.1714094938 0.2531736610 0.9521144274 -0.4363223192 -0.6609551757 0.6105416362 -0.9456342847 -0.3248614879 -0.0155181602 0.6139378562 -0.7892937370 0.0097829209 0.5989295763 -0.8008015303 0.0005212168 0.5472209190 0.8316360832 0.0945023331 0.4998132574 0.7781932475 -0.3802656668 0.0644269990 -0.3623460059 0.9298142469 0.7572566503 -0.0105231788 0.6530326396 0.1054405814 0.2946066504 0.9497837677 -0.1808952199 0.8143195419 -0.5515075730 -0.1033736363 0.6607667106 -0.7434387974 -0.0956961709 0.2005414619 -0.9750001871 -0.2508200572 0.5934729147 0.7647739525 0.4793105327 -0.4879190524 -0.7295179310 0.2611702617 -0.8734912947 0.4108564864 -0.4050183971 0.2950866072 -0.8653808366 -0.5610593805 0.6174387765 -0.5513453807 0.6796918208 -0.6364749542 -0.3645801165 0.1152659876 -0.2602577338 -0.9586342703 0.2785724935 -0.2555672489 -0.9257876361 -0.1151268221 -0.6947419310 0.7099855380 -0.1319869909 -0.1364058054 -0.9818212111 0.1889881159 -0.3259868661 0.9262915606 0.1771338656 -0.3355313063 0.9252255596 -0.3539176133 0.6917201966 -0.6294962213 -0.5815546321 -0.3308887868 0.7431734795 -0.6850143811 -0.6446757800 0.3393352860 -0.3519566917 0.0410005206 -0.9351178773 0.2481392389 0.1400611034 -0.9585456721 0.6234679593 0.3239869738 -0.7115617644 0.9444698428 -0.0566733192 0.3236739887 0.9482893017 0.0855576965 0.3056587655 -0.4734710046 0.6020847777 -0.6428990032 -0.5584202802 0.4656563887 0.6865354458 -0.4312473561 0.6832491564 0.5892336618 0.1343174751 0.8425388617 -0.5216196722 -0.6365632595 -0.7535022258 0.1643825186 0.0926944445 -0.3335351437 0.9381695198 0.0489951113 -0.2190292069 0.9744873963 0.3163040045 0.5396028865 -0.7802438732 0.7737805562 0.4542851562 0.4414619437 0.3336642865 0.5760542798 -0.7462101652 0.2731866635 0.6214737850 -0.7342611125 0.8864807379 0.4479903633 -0.1160023092 -0.3028613988 -0.8435972985 -0.4434169270 -0.2974541072 0.9482580416 0.1110303591 -0.3437148226 0.8246723335 0.4491944602 -0.8803495875 -0.1147575168 -0.4602339798 -0.2751900821 -0.8528881778 -0.4436802619 -0.0722192881 -0.8079358931 -0.5848281517 -0.2014311073 0.9574072750 0.2068739202 -0.5934962901 0.7299744590 0.3389682033 -0.3922066438 -0.5327748070 0.7498832933 0.3396736942 0.5385639014 -0.7710841106 0.3863002041 0.5406368943 -0.7473178044 0.3396589241 0.5385630197 -0.7710912327 0.3396549484 0.5385627823 -0.7710931497 0.1126272858 -0.4601054626 0.8806918063 0.1108343364 -0.4528089795 0.8846919113 -0.0838011589 -0.9413532500 -0.3268507678 0.7066996814 -0.6148228924 -0.3500976597 0.4599500915 -0.3548452124 -0.8139599429 -0.2235103366 0.1352053437 0.9652785321 -0.2231833379 0.1347997898 0.9654109044 -0.2230437953 0.1346271220 0.9654672462 -0.2232303444 0.1348580812 0.9653918952 -0.2225790321 0.1340504191 0.9656547310 -0.2236710261 0.1354046444 0.9652133725 -0.2227720398 0.1342900623 0.9655769247 -0.2224690608 0.1339140611 0.9656989910 -0.1802115901 0.0818533906 0.9802162033 -0.2226775877 0.1341839599 0.9656134614 -0.2226623425 0.1344171102 0.9655845492 -0.2230756436 0.1349964854 0.9654083106 0.1669275275 -0.3145201587 -0.9344582764 -0.2215215089 0.1354762818 0.9656989169 0.2534603662 -0.2169876077 -0.9426951898 0.2505255389 -0.2101663349 -0.9450222569 0.4823436521 -0.3851728799 -0.7867569217 0.7374708084 0.4353349519 0.5163528701 0.4636665257 0.3371331133 -0.8193623233 0.8230628961 -0.5670103289 -0.0326612313 0.2197707560 -0.1326066468 -0.9664969178 0.2253256756 -0.1300573346 -0.9655637885 0.2248723646 -0.1264239900 -0.9661518485 0.2037504389 -0.0979229300 -0.9741133704 0.2245771425 -0.1254513050 -0.9663472860 0.1756616786 -0.7374330024 0.6521775384 0.1958935692 0.1959947969 0.9608390860 -0.0155859996 0.4234288198 -0.9057952921 -0.0707414543 0.3607668068 -0.9299693316 -0.1004624938 0.3256037788 -0.9401539590 -0.0743229461 0.1549460567 -0.9851232508 -0.3376676346 0.8585547462 0.3858293876 0.1560668411 -0.5231849798 0.8378070291 -0.3066378167 -0.9367086137 -0.1689681107 0.9259227970 0.1042819171 -0.3630320313 0.5340535706 0.5979785055 0.5976692152 -0.6750201444 -0.6277570469 -0.3876453208 -0.9195235457 0.3290598011 -0.2149327711 0.0689836359 -0.6885770178 0.7218746072 0.0714480049 -0.6715855568 0.7374740826 0.0633543804 -0.3691976273 0.9271889422 0.4348712709 0.8794813877 -0.1933894163 -0.3197020666 -0.5168104891 -0.7941646598 0.2726956870 0.5234748669 -0.8072243343 -0.0187451295 0.0079262654 0.9997928758 -0.0187550347 0.0079565330 0.9997924496 0.0753947524 -0.0381803171 0.9964225483 0.2195166326 -0.5921855342 -0.7753249261 -0.1204681834 0.3287114520 -0.9367156442 -0.1204813671 0.3287223178 -0.9367101355 0.2194880829 -0.5919975814 -0.7754765278 -0.1204930356 0.3287319344 -0.9367052598 0.1357641332 -0.0261307306 0.9903965292 0.2192777172 -0.5917314976 -0.7757390782 0.2181273820 -0.5917925468 -0.7760167696 -0.3180935305 -0.8153411510 0.4837719642 -0.2059571671 0.1752058523 0.9627484379 -0.8647650626 0.4792062283 -0.1501425232 -0.0545664447 0.3320558786 0.9416800925 -0.6879623773 0.4288513190 -0.5854863907 -0.0387618766 -0.7615536302 -0.6469417170 0.1346723262 -0.2781228013 -0.9510578699 0.6640590418 0.3246329559 -0.6735273068 -0.2386587767 -0.2963332437 0.9247857033 -0.1922979813 -0.3520446335 -0.9160164095 -0.1771590699 -0.3510705623 -0.9194368517 -0.1801626805 -0.3565785498 -0.9167295928 -0.8774162915 0.4309652928 0.2107357772 -0.5001218409 0.4190709468 -0.7577979188 0.5889320236 -0.5446874660 -0.5970549689 0.2173976283 -0.1597296478 -0.9629250806 0.9732604525 0.2297004594 0.0013381217 -0.6193076610 0.5275609490 -0.5814958865 0.9097907594 -0.4077856378 0.0774057337 0.6530776248 0.0527696175 -0.7554501860 0.1091433901 0.9771415994 0.1824335909 -0.6847327962 -0.2364479716 0.6893717100 -0.6894327319 -0.2314174584 0.6863879866 -0.6822162642 -0.2397736042 0.6907167203 -0.6643679875 -0.2351613020 0.7094465020 0.4877503978 -0.4803102607 -0.7289729782 0.7528388918 -0.6492563581 -0.1081655415 0.0332315431 0.4261979239 0.9040193550 -0.6546856031 0.4063151121 0.6374125750 -0.0725716138 -0.4846457283 -0.8716948313 -0.5033498687 -0.6987156361 0.5083653898 0.3390206797 0.2884341472 -0.8954723454 -0.2373888290 0.0128342575 -0.9713299263 -0.2615766879 -0.0587887830 -0.9633906349 0.7522916981 0.2694451544 0.6012125328 0.1439932284 -0.6094782500 0.7796167090 -0.4401152664 0.8365794675 0.3262412401 0.2696938490 0.7976556702 0.5394540384 0.2716256669 0.8386200955 0.4721608122 0.2090928387 0.6355677467 -0.7431916470 -0.3845854909 0.7536652263 -0.5329941152 -0.2919839083 0.6684342147 0.6840622032 -0.2518979820 0.6666733496 0.7014941565 -0.8247884780 0.4462035368 0.3473130725 -0.1772994367 0.9573729923 0.2280391705 0.3002286162 0.5922476443 -0.7477335795 0.2806572128 0.5827398916 -0.7626570315 -0.2984520790 0.4463290934 -0.8436330345 -0.3000540027 0.4872079055 -0.8201195353 -0.1923630954 -0.5414393109 0.8184374821 -0.1957666877 -0.5312673362 0.8242756950 -0.4403116135 0.6284680019 -0.6412126431 0.0843757909 0.9896467918 0.1161032014 -0.6559090911 -0.6631175855 0.3606360104 -0.6477398925 -0.7391365767 -0.1846893408 0.6216304895 -0.6940203756 -0.3631958876 -0.4377216916 0.6553919722 -0.6155169238 -0.1216765759 0.3523831282 -0.9279121412 -0.2329724877 0.2568537875 -0.9379498664 -0.4786266138 0.7628195259 -0.4347676799 -0.1736929130 0.6566992254 0.7338779867 -0.7734285622 -0.6004185131 -0.2032384519 -0.7640820043 -0.6230838586 -0.1671681663 0.2986761510 0.2188548933 -0.9289214673 0.2974134490 0.2166320168 -0.9298471969 -0.2439399641 0.3579248535 -0.9013229683 0.3978212232 0.4542100922 -0.7971395527 0.3423551960 0.4963676635 -0.7977543872 -0.3679625236 0.7958080094 0.4809295098 -0.3649441548 0.8040872065 0.4693181524 -0.8854922817 0.3731741000 0.2768474492 -0.8869878673 0.3678070973 0.2792319150 0.0322073486 0.0956228894 -0.9948964518 0.0299074142 0.0983245072 -0.9947048999 0.0681970291 0.0531634402 -0.9962543921 0.0336739765 0.0939383941 -0.9950083625 0.0706275909 0.0502723401 -0.9962351305 0.0315035944 0.0964957080 -0.9948347108 0.0697360293 0.0513356381 -0.9962437144 -0.9735266628 0.2172889920 0.0709318743 -0.4238661405 -0.7489810521 -0.5092787827 0.4890340083 -0.6031938072 0.6300817167 0.0011447156 0.0684580081 -0.9976533420 0.1759342382 -0.2961202526 -0.9388077225 0.5084287066 -0.3526558362 -0.7855788385 0.1803345252 -0.9835925043 -0.0050243995 0.9711451654 -0.0971713051 -0.2177953287 -0.2651233761 -0.9614099495 0.0734881244 -0.2908675032 -0.5680927014 0.7698485424 0.6003619850 -0.1235813132 -0.7901222349 0.4877584505 0.4212425687 0.7646217315 -0.0679951955 -0.9155812067 -0.3963429164 -0.1218673928 0.3804097159 -0.9167533947 0.3198468340 -0.2090819536 0.9241118652 -0.6040764637 -0.0347655663 -0.7961676843 -0.2391590132 -0.6359419478 0.7337443734 -0.2315482938 -0.6370179180 0.7352506782 0.8045609138 -0.5925217407 0.0399965349 0.5654823975 -0.0073121517 0.8247279494 0.0996568084 0.7560986933 0.6468255457 -0.1534854513 0.6421898601 -0.7510222366 0.7465856747 0.1815152631 -0.6400484666 0.1414886953 -0.5278167260 -0.8374905688 -0.6001516859 -0.5560361035 -0.5750146134 -0.2655327929 0.5367699650 -0.8008560049 -0.8479745549 -0.3158357147 -0.4256606108 -0.7710778666 -0.1248556347 -0.6243796875 0.3590313211 0.2544340540 -0.8979754020 0.3518001860 0.2536805854 -0.9010453871 0.3589462612 0.2544591725 -0.8980022890 0.4646804176 -0.0593493054 0.8834872775 -0.0936978427 -0.1858367177 -0.9781029744 -0.0848780292 -0.1981169691 -0.9764964858 -0.1139061798 -0.6161847003 -0.7793213697 0.0886044710 0.1653590392 0.9822452015 0.7157417046 -0.2994434762 -0.6309099911 0.8781622009 0.0218741144 0.4778626079 0.4081815572 0.9091385524 -0.0827943775 0.9197983846 -0.1472218046 -0.3637260946 0.4277901820 0.5480277091 -0.7187914789 0.4394554505 0.5374425374 -0.7197460844 -0.0485456024 -0.6506540838 0.7578209470 -0.0481438682 -0.6506588257 0.7578425037 -0.0497863510 -0.6508242828 0.7575942662 -0.0495884320 -0.6508278038 0.7576042220 -0.0496806247 -0.6508526921 0.7575768005 0.3639464919 -0.0156361518 -0.9312886028 0.9432758265 0.2503095831 -0.2181188387 -0.4285926812 0.5268797208 0.7339659893 -0.4289837098 0.5264540798 0.7340429678 -0.4345470459 0.5250506731 0.7317722703 -0.7262319490 0.3025677020 0.6172843283 -0.0362815229 0.2405688655 -0.9699537474 0.0041101668 0.2892686043 -0.9572391452 0.0163332611 0.3096376472 -0.9507143378 0.2013690980 0.3973546314 -0.8952987118 0.1078122657 0.8494476069 -0.5165416523 -0.3693022048 -0.1432360915 -0.9182043910 -0.2700006589 0.0784244637 -0.9596610067 -0.3530755225 -0.2886876757 0.8899421899 -0.3215958871 -0.9253116582 -0.2009338712 0.2932607541 -0.5837359445 -0.7571330644 -0.0298841722 -0.6451775246 -0.7634480323 0.2668503410 0.3719925636 -0.8890514204 0.3191398404 0.1144428052 -0.9407723458 -0.3964373371 0.0135277094 -0.9179621119 -0.3971867324 0.0123199088 -0.9176551201 -0.3732309468 0.0502489897 -0.9263766509 -0.3734484996 0.0499575780 -0.9263047331 0.1842545435 -0.3894793148 0.9024168253 -0.2693900668 0.0358331102 -0.9623642658 -0.2120085268 0.0192422843 -0.9770783587 -0.0860928611 -0.1622258415 0.9829907404 0.6306478573 -0.6960179676 -0.3432816174 0.6343768554 -0.6933621607 -0.3417819764 -0.2452327739 0.8945702452 -0.3736374754 -0.4035374153 0.9128031056 0.0628334692 -0.5502990835 -0.7400340316 0.3866788729 0.1735309252 0.3615627804 -0.9160564250 0.1744384989 0.3463889299 -0.9217298516 0.3688291002 -0.7351869625 -0.5687400329 -0.4895739612 -0.5444955608 -0.6810594106 0.0874890907 0.4826729270 0.8714198211 0.0729884336 0.4577562920 0.8860766703 0.2545698158 0.7718915283 -0.5825613079 0.2177879662 0.8018549230 -0.5564144896 -0.1614355200 -0.9838695613 0.0770665899 -0.0928262639 0.9011131814 0.4235307769 -0.4452222114 -0.8639968206 -0.2351311901 0.7007707410 -0.1018120923 0.7060840363 0.7780988479 -0.0149322713 0.6279643383 -0.1273515074 -0.6337174385 0.7630096996 -0.1228390707 -0.6298740665 0.7669219145 -0.1273202440 -0.6337424727 0.7629941243 -0.1228088493 -0.6299734296 0.7668451372 -0.1228658612 -0.6300213257 0.7667966545 -0.0929647768 -0.6040528656 0.7915034339 -0.1219637295 -0.6310540277 0.7660911583 -0.0935069175 -0.6037192838 0.7916940588 -0.0933854855 -0.6036238069 0.7917811887 -0.0310399328 0.6017033116 0.7981163119 0.5127452952 0.8092111930 -0.2868266155 0.9208305545 0.2509967778 0.2984488356 -0.0789221873 0.2649702188 -0.9610213689 -0.0744884760 0.2682340525 -0.9604696560 -0.0701649960 0.2713434484 -0.9599216668 0.3275185115 0.4936376156 -0.8056385847 0.6858731115 0.7189652321 0.1125480785 -0.1523927108 -0.6449740848 0.7488557215 -0.1524408472 -0.6449520622 0.7488648914 -0.1524543099 -0.6449497189 0.7488641689 -0.1524062077 -0.6449552367 0.7488692079 -0.1524368428 -0.6449517305 0.7488659922 -0.1524568126 -0.6449494090 0.7488639263 -0.1524535616 -0.6449497834 0.7488642657 -0.1523870508 -0.6449574426 0.7488712065 -0.1524020828 -0.6449557117 0.7488696383 0.0626443753 0.755245124