<?xml version="1.0"?>
<VTKFile type="UnstructuredGrid" version="0.1" byte_order="LittleEndian">
  <UnstructuredGrid>
    <FieldData>
      <DataArray type="Float32" Name="TIME"  NumberOfTuples="1" format="ascii"> 2.3000000000 </DataArray>
      <DataArray type="Int32"   Name="STEP"  NumberOfTuples="1" format="ascii"> 230000 </DataArray>
    </FieldData>
    <Piece NumberOfPoints="397" NumberOfCells="397">
      <Points>
        <DataArray type="Float32" NumberOfComponents="3" format="ascii">
 0.4248656277 0.2068247223 0.0759421716 0.5299835415 0.1286321373 0.0400903417 0.5050735595 0.1472902415 0.1825912622 0.6403309677 0.1082656344 0.1124593449 0.5396127383 0.3646963533 0.2039993785 0.5528628885 0.3591021251 0.2072252158 0.5678911423 0.4472840771 0.1939255300 0.7522016934 0.1787385921 0.1457371174 0.7585134807 0.1855911213 0.1501541568 0.6781373874 0.4551482435 0.1694644940 0.8496089434 0.2321586355 0.1150665495 0.7816294048 0.3733966747 0.0369718612 0.7953320351 0.3703136786 0.0373484176 0.8168262578 0.3857424230 0.0431743826 0.8042878691 0.3963503103 0.2240341426 0.8177016936 0.3880439791 0.2261926669 0.8970058543 0.3686624223 0.1723148901 0.7489574274 0.3245506912 0.6726853771 0.7715934880 0.2992912288 0.6582594831 0.7860261760 0.3639005523 0.5621485564 0.8677399816 0.6052394395 0.5111384612 0.9118152059 0.5556487730 0.5587190616 0.8933346771 0.6065789807 0.4947008382 0.9262236377 0.5446464642 0.5458334801 0.9417326687 0.3093625313 0.5254631924 0.9349241071 0.3343207413 0.5344003729 0.9466582930 0.4740633441 0.4508178018 0.2426830595 0.7997967681 0.0414075247 0.2550041577 0.8173379832 0.0914578897 0.0745409873 0.9091231199 0.1097898451 0.1543234240 0.7223186960 0.0815094674 0.0388482218 0.8885763255 0.1662299916 0.0554830932 0.8047835003 0.1553462700 0.0622452592 0.7985054342 0.1588805758 0.1716654225 0.7198405504 0.1453828774 0.1846701710 0.8263772703 0.1958313081 0.5696624086 0.7614143474 0.2455263540 0.6836953625 0.7584622109 0.2617670125 0.6518268077 0.7389197650 0.1620804106 0.7064491634 0.8129135359 0.2796424451 0.6573950143 0.7424562354 0.1621256544 0.6559147571 0.7439887502 0.1560625475 0.6050533083 0.8504637815 0.2446699738 0.6094902060 0.8548448778 0.2417834553 0.5207956989 0.7623146417 0.0984631925 0.7326495399 0.8581091549 0.2193682567 0.7273885147 0.8568454598 0.2066734716 0.5647752352 0.8549304678 0.1613310941 0.5655429789 0.8555391756 0.1539504294 0.1730895598 0.4807036209 0.3236679681 0.1676999006 0.4846846041 0.4415901589 0.1372097680 0.6603887458 0.2434457582 0.0843624699 0.6890411202 0.2636700740 0.1610021649 0.6613727675 0.2414214065 0.2576864289 0.4522142517 0.3447831172 0.2645267933 0.5527274902 0.4525361552 0.2909905720 0.5655082320 0.4523265993 0.3086347628 0.4589968836 0.2813290312 0.1182091127 0.7733030746 0.4080898218 0.2713212418 0.7854261487 0.2555496015 0.4240774125 0.5343442877 0.4164775481 0.4308579840 0.5455605760 0.4205624561 0.2460008928 0.8876082529 0.3715546031 0.3711242239 0.8402714200 0.4486924945 0.3884549068 0.8571706250 0.4473802237 0.4440472615 0.9114118252 0.2749297915 0.5616941342 0.7792375725 0.4616537327 0.7554626312 0.3393612330 0.5253660218 0.7491419143 0.3251153188 0.5221852867 0.7310411758 0.1923216114 0.5211157649 0.6605282175 0.0750027465 0.2089071144 0.6490928884 0.1078241363 0.2421735915 0.6082328136 0.1071837096 0.3161804329 0.5368086069 0.0942175510 0.3297709428 0.6497657191 0.8867032692 0.4452718022 0.6558259646 0.9007458393 0.3525099165 0.6572054202 0.9097064435 0.3464147973 0.7437354171 0.9446361416 0.5283420499 0.6975267074 0.9102994825 0.3310054879 0.7118960462 0.2412309760 0.2823324364 0.6923326565 0.1618244280 0.4376703247 0.7639622440 0.3793116561 0.3440274916 0.7707356082 0.3872238502 0.3523713666 0.5690850676 0.3189421769 0.3113866656 0.5335501073 0.2357767187 0.4478696320 0.4819224368 0.2672507871 0.3471215178 0.4709337108 0.3273644859 0.5039558529 0.4582427036 0.3355685026 0.5055473954 0.3861280336 0.4139796652 0.4441288972 0.5795571660 0.5972596137 0.5628753978 0.1272841501 0.2954910886 0.0794061808 0.1210212366 0.2920245266 0.0845397006 0.1781412185 0.3772347757 0.0528336122 0.1491851158 0.4388030664 0.0568117849 0.0950514549 0.4146543689 0.1045532947 0.2077578079 0.4386263306 0.0527645451 0.1964216920 0.4344274607 0.0567119682 0.2718650035 0.5419325368 0.0599515649 0.1116358570 0.4730185823 0.1348021203 0.1123446625 0.4827914459 0.1420324258 0.1047370373 0.4920102303 0.1450374894 0.0995448998 0.5073272323 0.1534444126 0.1196642396 0.6091630938 0.0768621617 0.1243081931 0.6141201727 0.0785429281 0.0731072838 0.6660877362 0.2039443784 0.0764854196 0.6738808181 0.1942208184 0.1368989737 0.3952867681 0.2410295783 0.2422124062 0.3041294822 0.2229838529 0.2365957219 0.2958155577 0.2228481085 0.2487060338 0.3044903011 0.2244114270 0.2293346296 0.2902097620 0.2219677576 0.2433823033 0.2948298060 0.2245369673 0.2197435684 0.2869288601 0.2202317213 0.2548624221 0.3066659026 0.2255141758 0.2368424895 0.2880817084 0.2239866898 0.2496204484 0.2953278544 0.2258872521 0.2609591835 0.3107899581 0.2263354700 0.2673059008 0.3172674098 0.2268940354 0.2743118806 0.3269068707 0.2271848752 0.0603274389 0.3238607290 0.2405522562 0.2818525114 0.3248943409 0.2291688357 0.2734192136 0.3270495236 0.3139734599 0.2819436549 0.3344283816 0.3145344080 0.0744051029 0.2508643034 0.2704878398 0.0724349262 0.1488456686 0.2300783139 0.1130145522 0.0685999605 0.2994142686 0.1289088321 0.0610875180 0.3107448333 0.2422519688 0.1318712553 0.3407277804 0.2508565306 0.1370585806 0.3419976784 0.2667424921 0.1556172751 0.3433605572 0.2741716718 0.1652466590 0.3438924355 0.2824428303 0.1696911158 0.3451600647 0.8679193051 0.1866462289 0.4388056239 0.8336823515 0.1057837603 0.4125779306 0.7587874993 0.1533887811 0.5977303550 0.7548329736 0.1422519647 0.5935173062 0.7470183594 0.1331125591 0.5912841709 0.2973151429 0.2801271682 0.5031619998 0.2898166786 0.2700242626 0.4140888075 0.2534968391 0.3450374422 0.3698597099 0.3102787006 0.3803389023 0.4286137987 0.6312912580 0.7388014757 0.5144417020 0.6934313468 0.6467626714 0.3835491509 0.7179988349 0.8411218888 0.5228738032 0.7601119639 0.7119189419 0.4431567653 0.7150656555 0.7763952776 0.3773389943 0.7224895359 0.7765640693 0.3764753855 0.7217466461 0.7830359990 0.3798937071 0.5481872509 0.5178808500 0.2034161153 0.6016763178 0.5231811969 0.2544415525 0.6024642261 0.5427582367 0.2596849972 0.6200421579 0.5473501099 0.0836200656 0.6262664094 0.5623851588 0.0836983978 0.6399053734 0.5592322415 0.0832583512 0.7413559900 0.6640241457 0.2510462404 0.8187167518 0.4748230266 0.2427171030 0.8265609950 0.4850374569 0.2453596085 0.7524087041 0.6663452413 0.2524250740 0.8342686758 0.4949633322 0.2478035424 0.7588443393 0.7526335055 0.1137489767 0.7644299831 0.6690097342 0.2538311614 0.7782252631 0.6723025174 0.2552945362 0.8026206895 0.7665636185 0.1615327616 0.8794296042 0.6238425706 0.0942649147 0.9217421972 0.5592527257 0.1912923265 0.8981089816 0.6354669018 0.0942515534 0.9265935966 0.6781186478 0.2684870938 0.9125144133 0.7262480669 0.2334548496 0.9396900389 0.6711476401 0.2630020253 0.3658528015 0.5765592759 0.0833480937 0.4803341058 0.7324430194 0.0279589943 0.4430325749 0.6659647451 0.0961065882 0.4495913617 0.6639649018 0.0952662329 0.4523354105 0.6598801776 0.0965927899 0.3894139080 0.1711502015 0.4216739631 0.3343280266 0.0835949698 0.4717562899 0.1711617732 0.1840713135 0.3885523757 0.2163967258 0.1306971241 0.4587599525 0.1403150746 0.0872440776 0.4244189226 0.9285709263 0.4500576128 0.5810534266 0.2542670711 0.1549617245 0.0768238711 0.2905362992 0.1241701565 0.1289594710 0.3212535987 0.0796901953 0.1134301824 0.3626137129 0.1664956541 0.0989915797 0.3618117260 0.1720335970 0.1001080419 0.3650574220 0.1699182720 0.1024757795 0.3680820353 0.1736269177 0.1065981647 0.3291189915 0.2036799784 0.1572374850 0.3370088327 0.2091273356 0.1616379732 0.0617450676 0.1503452419 0.5058009046 0.1851533248 0.1663353025 0.5386195974 0.1499011060 0.2658927052 0.5712995110 0.1483443115 0.2522258272 0.4787913634 0.0408593522 0.9382743664 0.1632787841 0.1579120171 0.9508845968 0.1726207920 0.1685811175 0.9468868892 0.1683307396 0.4623075551 0.4848394454 0.1661075813 0.4577480923 0.4752214153 0.1662383736 0.5258218171 0.3954497714 0.2669788546 0.8807308170 0.5610000744 0.0484141564 0.8724850808 0.5657485047 0.0455635288 0.8788724589 0.5639566779 0.0436081418 0.9528858557 0.5564841926 0.0824611580 0.0848600921 0.9509139404 0.2972593310 0.0909292691 0.9527338213 0.2984104063 0.7712008748 0.0774324877 0.2849989463 0.7320440042 0.0975393857 0.3049630766 0.7245531121 0.0995463741 0.3031235354 0.8351608570 0.1252681684 0.3223781203 0.8416790246 0.1387118987 0.3278994260 0.7707173257 0.1908849644 0.2038456048 0.7747344896 0.1947179921 0.2066760922 0.3426226570 0.1902203695 0.5344525410 0.3550180131 0.1906370946 0.5361958053 0.4139974640 0.2829445530 0.5664102121 0.9548994339 0.6061799054 0.3610194944 0.8663808057 0.6117990775 0.4001110131 0.8999157904 0.4790679818 0.3659211668 0.9022688482 0.4738063540 0.3628352381 0.8960211441 0.4718840553 0.3635558720 0.9027211094 0.3807539275 0.2926225965 0.8058064427 0.0773868382 0.5900197047 0.3432499624 0.9113994667 0.0686957253 0.3482553032 0.9041866795 0.0728547054 0.2973767284 0.8399035689 0.0897858338 0.2988431973 0.8343466000 0.0890977562 0.8006525275 0.6605794693 0.3595339414 0.6844022368 0.6155005847 0.3399599083 0.6751673446 0.6201202453 0.3384223068 0.1505744937 0.9040884173 0.4534406435 0.1568599131 0.9069173741 0.4543828866 0.1183436164 0.9135210333 0.2299884136 0.1206148195 0.9131856389 0.2376250170 0.2538584841 0.3185997869 0.1147661020 0.2556212638 0.3240381441 0.1154062765 0.2607373107 0.3190383162 0.1151257517 0.2621699226 0.3245765150 0.1156869784 0.2673294908 0.3190357242 0.1154430157 0.2631788780 0.3301126892 0.1161657551 0.2685374348 0.3247183174 0.1158615611 0.3468131492 0.2670672304 0.0577852925 0.2798054983 0.4118674776 0.0597687278 0.1971438167 0.4195457456 0.3309922844 0.3175363607 0.4047915070
[...]
      <PointData Scalars="overlap">
        <DataArray type="Float32" Name="overlap" format="ascii">
 0.0002254570 0.0000180366 0.0002055155 0.0000271781 0.0000867659 0.0000336973 0.0000066748 0.0000519609 0.0002481468 0.0002513357 0.0001095156 0.0000493196 0.0000736429 0.0004934929 0.0000275062 0.0002316666 0.0000933144 0.0000061208 0.0000060197 0.0001278824 0.0000225806 0.0000498359 0.0000312610 0.0000294741 0.0000236808 0.0000094002 0.0001201593 0.0000834074 0.0001926210 0.0001196695 0.0000306782 0.0000291550 0.0000078116 0.0000871556 0.0002836622 0.0000286756 0.0002012044 0.0000835129 0.0000471434 0.0000979764 0.0001039258 0.0001685318 0.0000237525 0.0000125369 0.0001841610 0.0000527258 0.0000015765 0.0000530847 0.0001665120 0.0000608189 0.0000792443 0.0002216321 0.0000633660 0.0000344321 0.0000163709 0.0000027472 0.0000538802 0.0002901455 0.0001507730 0.0000516698 0.0001185488 0.0000182034 0.0000942935 0.0000935906 0.0000251826 0.0003208616 0.0000197985 0.0000906074 0.0000902264 0.0000188818 0.0000298893 0.0000614400 0.0000075108 0.0000860364 0.0000186404 0.0000015424 0.0000080493 0.0000087551 0.0000386646 0.0001866264 0.0000091533 0.0000304462 0.0002616542 0.0001153083 0.0000362442 0.0001260278 0.0000096248 0.0000134299 0.0000053600 0.0000160799 0.0000166879 0.0000397811 0.0000073136 0.0000399965 0.0000268072 0.0001012274 0.0001230782 0.0000468374 0.0000056292 0.0000081856 0.0000276847 0.0000247050 0.0000827415 0.0000451253 0.0000526618 0.0000484801 0.0000604091 0.0000762247 0.0000621418 0.0000975258 0.0000383586 0.0000569686 0.0000135385 0.0001105334 0.0000157832 0.0000255750 0.0001253498 0.0001386816 0.0001237439 0.0000805491 0.0001387673 0.0000161990 0.0000308090 0.0000371047 0.0000329028 0.0000592026 0.0000285277 0.0000088645 0.0000408385 0.0001085924 0.0000461950 0.0000184382 0.0000023503 0.0000397913 0.0000017326 0.0000124323 0.0000050392 0.0000338997 0.0000388234 0.0000604726 0.0000207206 0.0000174487 0.0000080121 0.0000065406 0.0000124636 0.0000222546 0.0000205459 0.0000128773 0.0000111372 0.0000257582 0.0000089685 0.0001705436 0.0000145513 0.0000459516 0.0000108865 0.0000460895 0.0001709440 0.0000239403 0.0001045896 0.0002025588 0.0000360882 0.0000388849 0.0001534384 0.0000037588 0.0000395698 0.0002890452 0.0000075160 0.0000188423 0.0000143568 0.0000434869 0.0000042340 0.0000133709 0.0000081811 0.0000749163 0.0000374998 0.0000597540 0.0000613942 0.0000355888 0.0000613050 0.0000169095 0.0000350697 0.0000000965 0.0000566606 0.0000127261 0.0000173273 0.0000517355 0.0000186474 0.0000524897 0.0000298318 0.0000294358 0.0000200184 0.0000082134 0.0000292037 0.0000111458 0.0000228206 0.0000148130 0.0000044782 0.0000261328 0.0000155953 0.0000057483 0.0000676694 0.0000369635 0.0000022963 0.0000128546 0.0000079145 0.0000399399 0.0000104714 0.0000490825 0.0000638054 0.0000372298 0.0002485674 0.0000720383 0.0000079152 0.0000106502 0.0000071965 0.0000072084 0.0000113460 0.0000366944 0.0000338364 0.0000536555 0.0000650534 0.0000022317 0.0000079502 0.0000881986 0.0000309464 0.0000606654 0.0000850753 0.0000024957 0.0000075209 0.0000549600 0.0000896318 0.0000004625 0.0000286666 0.0000800559 0.0001173582 0.0003509544 0.0003217006 0.0000397789 0.0000257161 0.0001377419 0.0001623440 0.0000231763 0.0000399420 0.0000082172 0.0000153817 0.0000605852 0.0000177169 0.0000218102 0.0000116963 0.0000307894 0.0000745019 0.0000538938 0.0000054640 0.0000323196 0.0000233588 0.0000211769 0.0000334305 0.0000188534 0.0000234739 0.0000271336 0.0000621887 0.0000033313 0.0000057571 0.0000216551 0.0000013585 0.0000079912 0.0000691376 0.0002012542 0.0001008071 0.0000707029 0.0000618025 0.0000251058 0.0000537929 0.0000845021 0.0000194611 0.0000498638 0.0000237053 0.0001327737 0.0000051717 0.0000217203 0.0000398081 0.0000061154 0.0000000831 0.0000140393 0.0000077605 0.0000124663 0.0000692392 0.0000454890 0.0000091435 0.0000063100 0.0000197055 0.0000500801 0.0000412892 0.0000038993 0.0000224165 0.0000265795 0.0000097697 0.0000019667 0.0000135187 0.0000583128 0.0001165538 0.0000071587 0.0000205711 0.0000300845 0.0000080614 0.0000235818 0.0000220063 0.0000727589 0.0000741419 0.0000794828 0.0000088315 0.0000789533 0.0000032869 0.0000336903 0.0000160422 0.0000038891 0.0000084983 0.0000219455 0.0000319187 0.0000314647 0.0000288522 0.0000207986 0.0000060384 0.0000217116 0.0000138258 0.0000218578 0.0000045149 0.0000584274 0.0000091527 0.0000052171 0.0000112295 0.0000607967 0.0000877956 0.0000141107 0.0000072731 0.0000051607 0.0000502932 0.0000601858 0.0000342387 0.0000377239 0.0000593127 0.0000512873 0.0000147634 0.0000058124 0.0000107263 0.0000200035 0.0000095050 0.0000054890 0.0000459234 0.0000167124 0.0000077346 0.0000328488 0.0000234615 0.0000009333 0.0000055552 0.0000595724 0.0000462375 0.0000193290 0.0000224549 0.0000419656 0.0000145474 0.0000078530 0.0000069117 0.0000341532 0.0000268513 0.0000103510 0.0000219503 0.0000404913 0.0000196063 0.0000141286 0.0000139259 0.0000067721 0.0000151247 0.0000077899 0.0000102339 0.0000160329 0.0000149896 0.0000043981 0.0000049046 0.0000518106 0.0000113785 0.0000607204 0.0000301451 0.0000320800 0.0000078812 0.0000192832 0.0000049553 0.0000029174 0.0000037630 0.0000649482 0.0000062664 0.0000316099 0.0000105126 0.0000234627 0.0000126859 0.0000248215 0.0001361738
        </DataArray>
        <DataArray type="Float32" Name="contact normal" NumberOfComponents="3" format="ascii">
 0.9747501519 -0.1893385549 -0.1183767418 0.1555859830 0.9312620970 0.3294600259 -0.0006368129 0.6164566713 -0.7873885743 -0.2103088637 0.7157842236 -0.6659002380 0.1103447566 -0.0480220334 -0.9927325516 0.2338205958 -0.1107062632 -0.9659565478 0.5992152474 -0.7719992810 -0.2120334819 -0.3785302785 0.6351396218 -0.6732848499 -0.3288740495 0.6782700890 -0.6571084735 -0.1641752649 -0.9501146278 -0.2651955439 -0.8558092531 0.4668490645 0.2228059095 -0.1400041058 -0.4490995500 0.8824445844 -0.1480002622 -0.4748755120 0.8675189741 -0.1169584676 -0.3830461058 0.9162949294 -0.0083228798 0.0626917672 -0.9979982325 0.0268020007 -0.0943838659 -0.9951750291 -0.8319972379 -0.0603852104 0.5514836557 -0.4683906701 0.3948411793 -0.7903863760 -0.3784804569 -0.4904366758 -0.7849996247 0.4267042522 -0.1496393357 0.8919257539 0.4063816342 -0.1798395630 0.8958301731 -0.6620495042 -0.1481335125 -0.7346747011 0.5876458494 -0.7239479074 0.3613471780 -0.6340624827 -0.2069747806 -0.7450679219 -0.0676257232 -0.3232406270 -0.9438973772 -0.7624891206 0.1937405724 -0.6173126692 0.3125094456 -0.0294009570 0.9494595463 -0.7342285877 -0.5295649245 0.4248168684 -0.7988401395 -0.6011112762 0.0227961657 -0.0013775859 -0.9554420257 0.2951756050 0.3770176247 0.7928948054 0.4787228199 0.3335862481 -0.6196429498 -0.7104666282 0.7209763364 0.5217250998 -0.4560658315 0.7537146300 0.4853032803 -0.4431647353 0.2852372104 0.6836412336 -0.6717696015 -0.4732873347 -0.4351832557 -0.7659077182 0.2186295270 -0.1883939596 -0.9574491349 -0.6235760553 0.7261424160 -0.2896033408 -0.5201676613 0.6630984187 0.5382621027 -0.1222848652 -0.0632411205 -0.9904781534 -0.3277429069 0.7301508206 0.5995534723 -0.7229358409 0.6861797828 0.0807531774 0.4062179645 -0.7683236235 -0.4946370133 0.4402976591 -0.7260799287 -0.5281533002 0.1713924662 0.2531834404 0.9521148922 -0.4363278416 -0.6609599252 0.6105325479 -0.9456360823 -0.3248557517 -0.0155286976 0.6139321011 -0.7892979552 0.0098037349 0.5989252097 -0.8008047815 0.0005432513 0.5472498287 0.8316201520 0.0944751172 0.4998166169 0.7781830187 -0.3802821833 0.0644284812 -0.3623447401 0.9298146375 0.7572536268 -0.0105197315 0.6530362011 0.1054397112 0.2946160394 0.9497809519 -0.1809471896 0.8143276885 -0.5514784949 -0.0998905325 0.1888103007 -0.9769199311 -0.0926841305 0.1994952868 -0.9755056548 -0.2508124423 0.5934770941 0.7647732066 0.4793155749 -0.4878860907 -0.7295366626 0.2611733146 -0.8735019796 0.4108318285 -0.4049992786 0.2950875490 -0.8653894631 -0.5610444611 0.6174387836 -0.5513605546 0.6797004191 -0.6364651026 -0.3645812851 0.1152358033 -0.2602406422 -0.9586425391 0.2785426079 -0.2555540726 -0.9258002655 -0.1151252488 -0.6947452314 0.7099825635 -0.1319831784 -0.1363816578 -0.9818250781 0.1889850148 -0.3259834561 0.9262933933 0.1771308771 -0.3355277521 0.9252274207 -0.3539333832 0.6917224912 -0.6294848333 -0.5815499720 -0.3308793720 0.7431813179 -0.6850152835 -0.6446657115 0.3393525922 -0.3519555806 0.0409995318 -0.9351183389 0.2481591653 0.1400490710 -0.9585422716 0.6234597118 0.3240170084 -0.7115553148 0.9444656392 -0.0566734407 0.3236862330 0.9482861537 0.0855574273 0.3056686070 -0.4734706448 0.6020687424 -0.6429142850 -0.5584341596 0.4656541127 0.6865257000 -0.4312498168 0.6832503148 0.5892305176 0.1343133463 0.8425291696 -0.5216363901 -0.6365711318 -0.7535008974 0.1643581202 0.0926863779 -0.3335302437 0.9381720588 0.0489928342 -0.2190271594 0.9744879710 0.3163052720 0.5395808349 -0.7802586093 0.7737812374 0.4542828597 0.4414631128 0.3336824814 0.5760493471 -0.7462058371 0.2732041138 0.6214709467 -0.7342570222 0.8866358815 0.4476449204 -0.1161500702 -0.3028130153 -0.8435992090 -0.4434463355 -0.2974601575 0.9482577389 0.1110167342 -0.3437222549 0.8246741939 0.4491853575 -0.8803493151 -0.1147605061 -0.4602337555 -0.2751878747 -0.8528893698 -0.4436793397 -0.0722220849 -0.8079404227 -0.5848215487 -0.2014313648 0.9574081593 0.2068695766 -0.5934963440 0.7299760496 0.3389646837 -0.3922104015 -0.5327760997 0.7498804095 0.3396650187 0.5385592022 -0.7710912143 0.3862916868 0.5406326363 -0.7473252874 0.3396502493 0.5385583204 -0.7710983359 0.3396462744 0.5385580830 -0.7711002526 0.1126376209 -0.4601213396 0.8806821897 0.1108446362 -0.4528249530 0.8846824450 -0.0837873057 -0.9413509572 -0.3268609228 0.7067038660 -0.6148154902 -0.3501022120 0.4599379879 -0.3548618869 -0.8139595128 -0.2235207495 0.1352175873 0.9652744059 -0.2231937500 0.1348120220 0.9654067892 -0.2230542202 0.1346393658 0.9654631303 -0.2232407493 0.1348703059 0.9653877814 -0.2225894585 0.1340626497 0.9656506299 -0.2236814161 0.1354168647 0.9652092503 -0.2227824739 0.1343023087 0.9655728140 -0.2224794828 0.1339262828 0.9656948952 -0.1802228128 0.0818652765 0.9802131474 -0.2226880283 0.1341962116 0.9656093511 -0.2226727843 0.1344293701 0.9655804345 -0.2230860842 0.1350087599 0.9654041816 0.1669385997 -0.3145176771 -0.9344571337 -0.2215319129 0.1354885703 0.9656948063 0.2534500554 -0.2169954861 -0.9426961485 0.2505154650 -0.2101752234 -0.9450229506 0.4823475883 -0.3851613780 -0.7867601394 0.7374661431 0.4353456447 0.5163505180 0.4636500435 0.3371394003 -0.8193690633 0.8230726448 -0.5669960683 -0.0326631271 0.2197664069 -0.1325991609 -0.9664989337 0.2253213159 -0.1300498361 -0.9655658158 0.2248679122 -0.1264162815 -0.9661538935 0.2037462571 -0.0979147657 -0.9741150658 0.2245725799 -0.1254434227 -0.9663493696 0.1756720107 -0.7374385108 0.6521685269 0.1959050699 0.1959949036 0.9608367194 -0.0155779366 0.4234204582 -0.9057993395 -0.0707363501 0.3607607873 -0.9299720550 -0.1004590546 0.3255990047 -0.9401559799 -0.0743554347 0.1549947156 -0.9851131445 -0.3376509186 0.8585399196 0.3858770057 0.1560909128 -0.5231696003 0.8378121486 -0.3074114865 -0.9364219896 -0.1691509246 0.9259529578 0.1042990731 -0.3629501663 0.5340481660 0.5979818749 0.5976706732 -0.6749967833 -0.6277862846 -0.3876386505 -0.9195101449 0.3290674910 -0.2149783242 0.0689783959 -0.6885747009 0.7218773179 0.0714417033 -0.6715833365 0.7374767150 0.0633401807 -0.3691972441 0.9271900649 0.4348294804 0.8795055272 -0.1933736035 -0.3197016719 -0.5168249006 -0.7941554401 0.2727043932 0.5234690373 -0.8072251736 -0.0187370950 0.0079277287 0.9997930148 -0.0187470073 0.0079580004 0.9997925885 0.0754015704 -0.0381811606 0.9964220000 0.2195090668 -0.5921902169 -0.7753234916 -0.1204597600 0.3287073023 -0.9367181837 -0.1204729430 0.3287181675 -0.9367126755 0.2194805133 -0.5920022247 -0.7754751255 -0.1204846107 0.3287277834 -0.9367078002 0.1357387042 -0.0261287993 0.9904000656 0.2192701340 -0.5917360966 -0.7757377136 0.2181197256 -0.5917970828 -0.7760154625 -0.3181197668 -0.8153506467 0.4837387072 -0.2059678854 0.1751897400 0.9627490769 -0.8647746776 0.4791885587 -0.1501435389 -0.0545796041 0.3320417011 0.9416843290 -0.6879570990 0.4288674224 -0.5854807973 -0.0388391051 -0.7615330897 -0.6469612641 0.1346378349 -0.2781442215 -0.9510564891 0.6640610534 0.3246364870 -0.6735236215 -0.2386427917 -0.2963520132 0.9247838138 -0.1922798457 -0.3520529862 -0.9160170063 -0.1771412064 -0.3510789931 -0.9194370743 -0.1801446853 -0.3565867581 -0.9167299364 -0.8774197883 0.4309513651 0.2107496997 -0.5000995526 0.4190247535 -0.7578381710 0.5889383855 -0.5446785774 -0.5970568025 0.2172625304 -0.1598296347 -0.9629389808 0.9732761735 0.2296339145 0.0013248889 -0.6192907279 0.5275923625 -0.5814854198 0.9097894913 -0.4077868122 0.0774144513 0.6530702762 0.0527418984 -0.7554584744 0.1092042366 0.9771626409 0.1822844151 -0.6847284589 -0.2364227672 0.6893846624 -0.6894282757 -0.2313924160 0.6864009051 -0.6822119111 -0.2397485451 0.6907297181 -0.6643632638 -0.2351358846 0.7094593502 0.4877570111 -0.4803276833 -0.7289570734 0.7528404041 -0.6492595689 -0.1081357393 0.0332135348 0.4262091705 0.9040147145 -0.6547432481 0.4061289013 0.6374720343 -0.0724314567 -0.4846387460 -0.8717103705 -0.5033494297 -0.6987229113 0.5083558251 0.3390280206 0.2884448053 -0.8954661331 -0.2373887883 0.0128387483 -0.9713298769 -0.2615777774 -0.0587865626 -0.9633904745 0.7523010848 0.2694390912 0.6012035046 0.1439869354 -0.6094803878 0.7796162000 -0.4400895624 0.8365868387 0.3262570127 0.2696939801 0.7976555534 0.5394541456 0.2716253048 0.8386176754 0.4721653187 0.2090924984 0.6355575851 -0.7432004327 -0.3846079383 0.7536511954 -0.5329977575 -0.2919962973 0.6684271550 0.6840638134 -0.2519105380 0.6666666613 0.7014960039 -0.1773026916 0.9573710521 0.2280447855 0.3002196924 0.5922475552 -0.7477372331 0.2806483356 0.5827395226 -0.7626605802 -0.2984636382 0.4463270763 -0.8436300123 -0.3000654571 0.4872059190 -0.8201165246 -0.1923609653 -0.5414397573 0.8184376874 -0.1957642866 -0.5312682537 0.8242756740 -0.4402910051 0.6284336618 -0.6412604491 0.0843653744 0.9896565003 0.1160279925 -0.6559102483 -0.6631271701 0.3606162815 -0.6477786918 -0.7391095482 -0.1846614258 0.6216070625 -0.6940441700 -0.3631905147 -0.4377503192 0.6553740016 -0.6155156993 -0.1217032099 0.3523702808 -0.9279135272 -0.2329966587 0.2568378466 -0.9379482276 -0.4786392208 0.7628175373 -0.4347572900 -0.1737592128 0.6566707822 0.7338877433 -0.7734358220 -0.6004112469 -0.2032322904 -0.7640896236 -0.6230762128 -0.1671618381 0.2986729320 0.2188542857 -0.9289226455 0.2974102286 0.2166313771 -0.9298483760 -0.2439423639 0.3579083300 -0.9013288803 0.3978300915 0.4542041920 -0.7971384887 0.3423640784 0.4963619086 -0.7977541560 -0.3679763524 0.7958237142 0.4808929403 -0.3649579073 0.8041023078 0.4692815833 -0.8854911314 0.3731755454 0.2768491800 -0.8869866717 0.3678087293 0.2792335633 0.0322210572 0.0956123223 -0.9948970235 0.0299211212 0.0983140053 -0.9947055257 0.0682101591 0.0531525526 -0.9962540742 0.0336876121 0.0939278726 -0.9950088942 0.0706406627 0.0502614529 -0.9962347530 0.0315172198 0.0964852585 -0.9948352928 0.0697490890 0.0513247906 -0.9962433591 -0.9735226564 0.2173044215 0.0709395926 -0.4238483239 -0.7489747971 -0.5093028093 0.4889896101 -0.6032162867 0.6300946537 0.0007643240 0.0688156425 -0.9976291010 0.1759510679 -0.2961334585 -0.9388004029 0.5084343960 -0.3526452388 -0.7855799135 0.1803314085 -0.9835930965 -0.0050203271 0.9711461699 -0.0971724472 -0.2177903399 -0.2651358272 -0.9614046410 0.0735126478 -0.2908753016 -0.5680893231 0.7698480888 0.6003732896 -0.1236086397 -0.7901093705 0.4877604858 0.4212413625 0.7646210976 -0.0679577238 -0.9155845994 -0.3963415057 -0.1218009154 0.3804350689 -0.9167517087 0.3198486000 -0.2090792143 0.9241118738 -0.6040671352 -0.0347834150 -0.7961739824 -0.2391576568 -0.6359401639 0.7337463616 -0.2315473144 -0.6370160779 0.7352525809 0.8045562638 -0.5925282421 0.0399937574 0.5655269644 -0.0072796562 0.8246976775 0.0996610367 0.7561077942 0.6468142556 -0.1534945388 0.6421948709 -0.7510160946 0.7465747163 0.1815172047 -0.6400606982 0.1414858695 -0.5278221975 -0.8374875979 -0.6001439346 -0.5560476474 -0.5750115404 -0.2655408579 0.5367614894 -0.8008590115 -0.8479796701 -0.3158350229 -0.4256509337 -0.7710756208 -0.1248576656 -0.6243820548 0.3590280356 0.2544343023 -0.8979766452 0.3517969504 0.2536807605 -0.9010466012 0.3589430375 0.2544594263 -0.8980035057 0.4646754403 -0.0593596254 0.8834892020 -0.0936816911 -0.1858481853 -0.9781023427 -0.0848618668 -0.1981281372 -0.9764956246 -0.1138612103 -0.6161851792 -0.7793275625 0.0886099877 0.1653437088 0.9822472846 0.7157181988 -0.2994080279 -0.6309534791 0.8781780682 0.0218666593 0.4778337888 0.4082334051 0.9091127019 -0.0828225942 0.9197796993 -0.1472361495 -0.3637675371 0.4277885160 0.5480340203 -0.7187876586 0.4394539551 0.5374489389 -0.7197422173 0.4456003176 0.4935981804 -0.7468608929 -0.0485459815 -0.6506522172 0.7578225253 -0.0481442535 -0.6506569595 0.7578440815 -0.0497867411 -0.6508224152 0.7575958449 -0.0495888304 -0.6508259363 0.7576058002 -0.0496810351 -0.6508508243 0.7575783783 0.3639438029 -0.0156665683 -0.9312891425 0.9432750036 0.2503142600 -0.2181170300 -0.4285977707 0.5268465449 0.7339868317 -0.4289888009 0.5264208954 0.7340637912 -0.4345521216 0.5250175825 0.7317929978 -0.7262465654 0.3025383302 0.6172815282 -0.0362920326 0.2405583231 -0.9699559689 0.0040997497 0.2892582514 -0.9572423183 0.0163220536 0.3096263084 -0.9507182231 0.2013592423 0.3973552657 -0.8953006469 0.1077979692 0.8494533260 -0.5165352309 -0.3693051390 -0.1432331218 -0.9182036741 -0.2700030367 0.0784294719 -0.9596599284 -0.3530773373 -0.2886612389 0.8899500453 -0.3215969552 -0.9253132018 -0.2009250531 0.2932650261 -0.5837466184 -0.7571231802 -0.0298779677 -0.6451891010 -0.7634384920 0.2668573557 0.3719722039 -0.8890578334 0.3191271764 0.1144107382 -0.9407805421 -0.3964576483 0.0135048860 -0.9179536759 -0.3972069957 0.0122970554 -0.9176466558 -0.3732526615 0.0502271487 -0.9263690864 -0.3734701954 0.0499357400 -0.9262971634 0.1843124552 -0.3894355105 0.9024239037 -0.2694413867 0.0358385316 -0.9623496967 -0.2120594204 0.0192463734 -0.9770672338 -0.0860801946 -0.1622019127 0.9829957984 0.6307154340 -0.6959271578 -0.3433415680 0.6344429955 -0.6932718567 -0.3418423878 -0.2452311874 0.8945768569 -0.3736226863 -0.4035612924 0.9127923858 0.0628358472 -0.5502950273 -0.7400429151 0.3866676438 0.1735233335 0.3615606537 -0.9160587025 0.1744308861 0.3463870123 -0.9217320129 0.3688134021 -0.7351840524 -0.5687539745 -0.4895878516 -0.5444891742 -0.6810545314 0.0874868392 0.4826684832 0.8714225085 0.0729867445 0.4577507286 0.8860796835 0.2544593776 0.7719276737 -0.5825616634 0.2176766955 0.8018852181 -0.5564143718 -0.1589119015 -0.9842544128 0.0773967603 -0.0928192925 0.9011145830 0.4235293229 -0.4452043818 -0.8639988687 -0.2351574224 0.7007712655 -0.1018247209 0.7060816948 0.7780979474 -0.0149464236 0.6279651174 -0.1273120412 -0.6337155824 0.7630178273 -0.1227997012 -0.6298720450 0.7669298796 -0.1272806067 -0.6337404702 0.7630024008 -0.1227693079 -0.6299712612 0.7668532501 -0.1228261520 -0.6300190196 0.7668049109 -0.0929255450 -0.6040492861 0.7915107726 -0.1219237692 -0.6310515646 0.7660995480 -0.0934675573 -0.6037156094 0.7917015086 -0.0933459916 -0.6036200140 0.7917887374 -0.0310411035 0.6016762668 0.7981366549 0.5127278478 0.8092271651 -0.2868127427 0.9208283718 0.2510041479 0.2984493717 -0.0863737108 0.2162575419 -0.9725082301 0.3274532646 0.4936092655 -0.8056824763 0.6858345545 0.7190001836 0.1125597615 -0.1523917243 -0.6449747323 0.7488553646 -0.1524398607 -0.6449527097 0.7488645346 -0.1524533235 -0.6449503664 0.7488638121 -0.1524052215 -0.6449558842 0.7488688509 -0.1524358564 -0.6449523780 0.7488656353 -0.1524558264 -0.6449500565 0.7488635694 -0.1524525754 -0.6449504309 0.7488639088 -0.1523860644 -0.6449580902 0.7488708496 -0.1524010965 -0.6449563592 0.7488692814 0.0626762513 0.7552379408 -0.6524471935 0.1032503077 0.2809238902 -0.9541599142 0.3833821253 -0.3531624866 0.8534016663 0.8627620969