<?xml version="1.0"?>
<VTKFile type="UnstructuredGrid" version="0.1" byte_order="LittleEndian">
  <UnstructuredGrid>
    <FieldData>
      <DataArray type="Float32" Name="TIME"  NumberOfTuples="1" format="ascii"> 3.8500000000 </DataArray>
      <DataArray type="Int32"   Name="STEP"  NumberOfTuples="1" format="ascii"> 385000 </DataArray>
    </FieldData>
    <Piece NumberOfPoints="399" NumberOfCells="399">
      <Points>
        <DataArray type="Float32" NumberOfComponents="3" format="ascii">
 0.4248653699 0.2068250893 0.0759427239 0.5299832641 0.1286324157 0.0400906506 0.5050733096 0.1472905101 0.1825915337 0.6403307174 0.1082660222 0.1124596419 0.5396124232 0.3646964707 0.2040003135 0.5528625578 0.3591022474 0.2072261914 0.5678908614 0.4472841530 0.1939265969 0.7522014696 0.1787388391 0.1457376704 0.7585132460 0.1855913641 0.1501547160 0.6781370837 0.4551486702 0.1694656542 0.8496088073 0.2321589619 0.1150671225 0.7816291266 0.3733973455 0.0369725573 0.7953317629 0.3703143690 0.0373490927 0.8168259946 0.3857431515 0.0431749089 0.8042875493 0.3963504478 0.2240352676 0.8177013709 0.3880441376 0.2261937622 0.8970056291 0.3686627167 0.1723157459 0.7489576329 0.3245509825 0.6726876734 0.7715936600 0.2992913959 0.6582619160 0.7860263681 0.3638998452 0.5621505667 0.8677399151 0.6052383471 0.5111380800 0.9118153650 0.5556481938 0.5587193373 0.8933346016 0.6065777653 0.4947004428 0.9262234179 0.5446456686 0.5458334142 0.9417328327 0.3093616180 0.5254655273 0.9349241483 0.3343199415 0.5344024157 0.9466584104 0.4740617408 0.4508189084 0.2426832168 0.7997979650 0.0414071018 0.2550042797 0.8173389713 0.0914575160 0.0745409955 0.9091235302 0.1097900288 0.1543236866 0.7223193242 0.0815086145 0.0388482743 0.8885766647 0.1662301365 0.0554832922 0.8047838122 0.1553460105 0.0622454408 0.7985057281 0.1588803018 0.1716657638 0.7198409906 0.1453823345 0.1846703653 0.8263776811 0.1958309479 0.5696626720 0.7614155848 0.2455268481 0.6836957233 0.7584629424 0.2617669910 0.6518271344 0.7389198068 0.1620805334 0.7064497744 0.8129142849 0.2796418843 0.6573953239 0.7424563180 0.1621258054 0.6559150844 0.7439887499 0.1560626406 0.6050541940 0.8504646005 0.2446690906 0.6094910870 0.8548457125 0.2417825710 0.5207961057 0.7623147240 0.0984628204 0.7326504431 0.8581093551 0.2193673865 0.7273894326 0.8568455387 0.2066726680 0.5647760939 0.8549309404 0.1613302434 0.5655437892 0.8555396578 0.1539495726 0.1730880373 0.4807041203 0.3236696125 0.1676982262 0.4846856214 0.4415918056 0.1372092264 0.6603893932 0.2434468353 0.0843620012 0.6890419910 0.2636710050 0.1610016252 0.6613732807 0.2414224999 0.2576849301 0.4522145141 0.3447852006 0.2908211712 0.4616807626 0.4187204696 0.2909890094 0.5655090216 0.4523276155 0.3086335319 0.4589966941 0.2813307095 0.1182090068 0.7733037353 0.4080899330 0.2713210542 0.7854265518 0.2555506419 0.4240762092 0.5343441622 0.4164801999 0.4308569037 0.5455602507 0.4205649252 0.2460009481 0.8876087200 0.3715553691 0.3711239114 0.8402715057 0.4486929245 0.3884546328 0.8571708016 0.4473812338 0.4440475744 0.9114116191 0.2749308664 0.5616934843 0.7792372486 0.4616557417 0.7554629302 0.3393613936 0.5253675481 0.7491421178 0.3251155537 0.5221866267 0.7310397834 0.1923222417 0.5211138559 0.6605269479 0.0750022046 0.2089066570 0.6490922358 0.1078241104 0.2421730499 0.6082326087 0.1071846305 0.3161804311 0.5368083791 0.0942193538 0.3297714250 0.6497663679 0.8867026009 0.4452710230 0.6558275346 0.9007453046 0.3525091442 0.6572069814 0.9097059201 0.3464140320 0.7437351855 0.9446357132 0.5283420942 0.6975284434 0.9102990601 0.3310050614 0.7118967818 0.2412318875 0.2823336223 0.6923338607 0.1618249373 0.4376715994 0.7639624793 0.3793126036 0.3440291109 0.7707359821 0.3872248861 0.3523731181 0.5690855158 0.3189428271 0.3113883974 0.5335512968 0.2357771345 0.4478710231 0.4819228627 0.2672508916 0.3471233470 0.4709346766 0.3273644146 0.5039578797 0.4582436237 0.3355683662 0.5055495153 0.3861279597 0.4139791033 0.4441315742 0.5795574396 0.5972596419 0.5628780288 0.1272842030 0.2954917934 0.0794075821 0.1210213750 0.2920252453 0.0845411929 0.1781405614 0.3772356614 0.0528339031 0.1491841436 0.4388040156 0.0568121448 0.0950511694 0.4146549727 0.1045543168 0.2077572037 0.4386271199 0.0527655115 0.1964211237 0.4344282179 0.0567128984 0.2718645671 0.5419334973 0.0599524155 0.1116351816 0.4730193842 0.1348030142 0.1123439673 0.4827922185 0.1420333604 0.1047363509 0.4920110136 0.1450384104 0.0995442033 0.5073279990 0.1534453576 0.1196636571 0.6091640316 0.0768629649 0.1243076074 0.6141211229 0.0785437039 0.0731066126 0.6660883913 0.2039453279 0.0764848151 0.6738815556 0.1942217951 0.1368992513 0.3952857504 0.2410300448 0.2422131763 0.3041289654 0.2229842284 0.2365965268 0.2958150180 0.2228484415 0.2487068060 0.3044898021 0.2244117902 0.2293354560 0.2902091976 0.2219680697 0.2433831163 0.2948292838 0.2245372779 0.2197444046 0.2869282667 0.2202320326 0.2548631878 0.3066654222 0.2255145391 0.2368433295 0.2880811624 0.2239869705 0.2496212596 0.2953273529 0.2258875506 0.2609599338 0.3107894979 0.2263358467 0.2673066251 0.3172669727 0.2268944408 0.2743125645 0.3269064614 0.2271853294 0.0603280279 0.3238594227 0.2405523492 0.2818532088 0.3248939498 0.2291692573 0.2734195429 0.3270488292 0.3139742184 0.2819439449 0.3344277258 0.3145352456 0.0744059337 0.2508628838 0.2704875060 0.0724362519 0.1488443245 0.2300774677 0.1130161004 0.0685985732 0.2994133174 0.1289103179 0.0610862065 0.3107438924 0.2422530859 0.1318702932 0.3407276126 0.2508576282 0.1370576460 0.3419975242 0.2667435333 0.1556163873 0.3433604030 0.2741726854 0.1652457945 0.3438922635 0.2824438259 0.1696902780 0.3451599234 0.8679181591 0.1866464659 0.4388061500 0.8336811194 0.1057840398 0.4125784050 0.7587844126 0.1533903307 0.5977298647 0.7548298859 0.1422535280 0.5935167974 0.7470152591 0.1331141412 0.5912836394 0.2973177334 0.2801242675 0.5031614266 0.2898201859 0.2700269557 0.4140873790 0.2535000291 0.3450424793 0.3698626959 0.3102813104 0.3803418674 0.4286196749 0.6312900222 0.7388023091 0.5144398751 0.6934324281 0.6467628819 0.3835487164 0.7179978362 0.8411225807 0.5228728396 0.7601122814 0.7119192018 0.4431571510 0.7150670330 0.7763953906 0.3773382918 0.7224909225 0.7765642184 0.3764747475 0.7217479873 0.7830361387 0.3798930032 0.5481879608 0.5178809359 0.2034164780 0.6016769200 0.5231816507 0.2544419480 0.6024648150 0.5427587281 0.2596855282 0.6200434813 0.5473502725 0.0836203752 0.6262677224 0.5623853261 0.0836987381 0.6399066725 0.5592324251 0.0832587410 0.7413565765 0.6640247055 0.2510469439 0.8187174794 0.4748236486 0.2427186240 0.8265617048 0.4850380902 0.2453611387 0.7524092807 0.6663458187 0.2524258270 0.8342693697 0.4949639757 0.2478050811 0.7588453983 0.7526338250 0.1137495337 0.7644305493 0.6690103308 0.2538319682 0.7782258174 0.6723031362 0.2552954051 0.8026215588 0.7665640703 0.1615335485 0.8794308962 0.6238428679 0.0942660224 0.9217430141 0.5592533481 0.1912940327 0.8981102352 0.6354670818 0.0942524850 0.9265940486 0.6781194307 0.2684885395 0.9125150287 0.7262489995 0.2334563871 0.9396905669 0.6711483734 0.2630034967 0.3658526884 0.5765589456 0.0833478176 0.4803347334 0.7324425490 0.0279596860 0.4430329033 0.6659641124 0.0961068970 0.4495916719 0.6639642285 0.0952664887 0.4523356992 0.6598794793 0.0965930080 0.3894144102 0.1711521678 0.4216737733 0.3343293230 0.0835969115 0.4717569385 0.1711622667 0.1840709396 0.3885516013 0.2163976265 0.1306978545 0.4587596792 0.1403159980 0.0872436710 0.4244190744 0.9285705644 0.4500576901 0.5810535387 0.2542665145 0.1549624355 0.0768238253 0.2905353271 0.1241714284 0.1289600059 0.3212517163 0.0796906774 0.1134317139 0.3626134905 0.1664948426 0.0989907864 0.3618115090 0.1720327916 0.1001072250 0.3650571909 0.1699174653 0.1024749835 0.3680817980 0.1736261189 0.1065973699 0.3291197186 0.2036811090 0.1572358802 0.3370097216 0.2091283929 0.1616363033 0.0617464569 0.1503430162 0.5058003889 0.1851542798 0.1663342328 0.5386194269 0.1499010710 0.2658911328 0.5712995649 0.1483448563 0.2522246900 0.4787910774 0.0408593787 0.9382737728 0.1632794389 0.1579120582 0.9508841647 0.1726205207 0.1685811567 0.9468865436 0.1683304251 0.4623075970 0.4848404785 0.1661081056 0.4577480433 0.4752225037 0.1662387668 0.5258208993 0.3954496809 0.2669789342 0.8807304857 0.5610001194 0.0484155801 0.8724847732 0.5657485779 0.0455649405 0.8788721233 0.5639566784 0.0436095954 0.9528857958 0.5564837410 0.0824620896 0.0848612285 0.9509143998 0.2972595398 0.0909304408 0.9527341989 0.2984105582 0.7712012951 0.0774324578 0.2849991602 0.7320444672 0.0975390919 0.3049635004 0.7245535804 0.0995461104 0.3031239541 0.8351612752 0.1252679483 0.3223784301 0.8416794291 0.1387116583 0.3278998130 0.7707173554 0.1908855666 0.2038465407 0.7747345218 0.1947185811 0.2066770407 0.3426264497 0.1902181082 0.5344574999 0.3550217311 0.1906349269 0.5362010493 0.4139994068 0.2829445816 0.5664126000 0.9549004238 0.6061796305 0.3610207185 0.8663821956 0.6117984033 0.4001128849 0.8999168111 0.4790676965 0.3659220478 0.9022698765 0.4738060534 0.3628360637 0.8960221543 0.4718837615 0.3635566645 0.9027216560 0.3807539627 0.2926229768 0.8058060414 0.0773909054 0.5900193195 0.3432508513 0.9113997498 0.0686958782 0.3482561893 0.9041869622 0.0728548688 0.2973774220 0.8399040392 0.0897857979 0.2988438741 0.8343470661 0.0890977173 0.8006524317 0.6605802352 0.3595343821 0.6844024672 0.6155007990 0.3399599736 0.6751675392 0.6201203962 0.3384223962 0.1505750531 0.9040892874 0.4534406451 0.1568604565 0.9069182470 0.4543829266 0.1183439746 0.9135208938 0.2299885014 0.1206152156 0.9131855504 0.2376250956 0.2538578291 0.3186002951 0.1147663746 0.2556206088 0.3240386487 0.1154065776 0.2607366519 0.3190388304 0.1151259913 0.2621692667 0.3245770218 0.1156872543 0.2673288361 0.3190362376 0.1154432245 0.2631782240 0.3301131923 0.1161660643 0.2685367793 0.3247188282 0.1158618061 0.3468126043 0.2670680288 0.0577853158 0.2798049975 0.4118683566 0.0597694440 0.1971451523 0.4195478332 0.3309930189 0.3175368812 0.4047896823
[...]
      <PointData Scalars="overlap">
        <DataArray type="Float32" Name="overlap" format="ascii">
 0.0002254745 0.0000176105 0.0002058921 0.0000272897 0.0000867015 0.0000335213 0.0000068573 0.0000517757 0.0002479850 0.0002509248 0.0001091930 0.0000488064 0.0000730882 0.0004925686 0.0000272025 0.0002313848 0.0000931053 0.0000060058 0.0000061434 0.0001281755 0.0000225618 0.0000493036 0.0000312293 0.0000301336 0.0000237337 0.0000096807 0.0001207392 0.0000834939 0.0001927799 0.0001200320 0.0000300731 0.0000289395 0.0000076559 0.0000869193 0.0002830971 0.0000288571 0.0001999998 0.0000835526 0.0000471103 0.0000981943 0.0001040792 0.0001685784 0.0000240947 0.0000127325 0.0001836077 0.0000525377 0.0000014555 0.0000530517 0.0001662963 0.0000603238 0.0000792297 0.0002215368 0.0000634146 0.0000342512 0.0000158986 0.0000083763 0.0000554154 0.0002891332 0.0001526299 0.0000511598 0.0001174294 0.0000170668 0.0000945992 0.0000953196 0.0000257219 0.0003203314 0.0000195673 0.0000905958 0.0000906024 0.0000191813 0.0000292524 0.0000608735 0.0000072985 0.0000863123 0.0000184304 0.0000016196 0.0000080407 0.0000088305 0.0000385589 0.0001860601 0.0000088400 0.0000308393 0.0002619972 0.0001149523 0.0000372275 0.0001253309 0.0000100008 0.0000137016 0.0000040580 0.0000159748 0.0000165767 0.0000396941 0.0000070805 0.0000395054 0.0000271321 0.0001011792 0.0001229207 0.0000461558 0.0000056375 0.0000081051 0.0000276382 0.0000246096 0.0000822993 0.0000446051 0.0000529055 0.0000486016 0.0000602437 0.0000762288 0.0000621624 0.0000974585 0.0000384294 0.0000569067 0.0000136976 0.0001104083 0.0000157573 0.0000254449 0.0001251786 0.0001384753 0.0001235141 0.0000800826 0.0001384369 0.0000157837 0.0000303458 0.0000370176 0.0000326333 0.0000591708 0.0000283668 0.0000085796 0.0000406241 0.0001086341 0.0000463988 0.0000186707 0.0000024479 0.0000396805 0.0000015798 0.0000123515 0.0000049215 0.0000335657 0.0000389111 0.0000605992 0.0000185422 0.0000169013 0.0000081520 0.0000067108 0.0000121264 0.0000222243 0.0000203564 0.0000126732 0.0000104711 0.0000260278 0.0000088016 0.0001701134 0.0000141975 0.0000455718 0.0000110361 0.0000460100 0.0001708655 0.0000240643 0.0001045135 0.0002023915 0.0000361834 0.0000389453 0.0001534319 0.0000031393 0.0000397099 0.0002879323 0.0000076284 0.0000181628 0.0000145148 0.0000432498 0.0000043962 0.0000131644 0.0000080823 0.0000748575 0.0000376846 0.0000596532 0.0000612482 0.0000358470 0.0000604490 0.0000171895 0.0000351399 0.0000001359 0.0000570163 0.0000125489 0.0000174570 0.0000518148 0.0000190091 0.0000527946 0.0000301365 0.0000300033 0.0000204792 0.0000078973 0.0000286158 0.0000113308 0.0000229118 0.0000146752 0.0000045196 0.0000260361 0.0000156983 0.0000056821 0.0000675145 0.0000368676 0.0000021367 0.0000126983 0.0000078395 0.0000400782 0.0000105615 0.0000492775 0.0000639887 0.0000374359 0.0002482619 0.0000717221 0.0000078625 0.0000103776 0.0000072381 0.0000071561 0.0000117160 0.0000368662 0.0000339671 0.0000539356 0.0000649616 0.0000026610 0.0000081132 0.0000882896 0.0000310427 0.0000607616 0.0000853735 0.0000025453 0.0000074746 0.0000557993 0.0000901172 0.0000004538 0.0000287096 0.0000797819 0.0001170895 0.0003507747 0.0003215105 0.0000396834 0.0000255202 0.0001376370 0.0001623086 0.0000229726 0.0000388762 0.0000070145 0.0000153221 0.0000604014 0.0000176696 0.0000218958 0.0000121292 0.0000311348 0.0000745272 0.0000535042 0.0000058010 0.0000329850 0.0000231395 0.0000208948 0.0000334614 0.0000189504 0.0000233252 0.0000275402 0.0000620094 0.0000031680 0.0000057089 0.0000214419 0.0000013742 0.0000081625 0.0000690381 0.0002011552 0.0001005035 0.0000705802 0.0000617947 0.0000254630 0.0000533546 0.0000846482 0.0000196773 0.0000506820 0.0000229346 0.0001329227 0.0000053613 0.0000218460 0.0000399284 0.0000061671 0.0000000288 0.0000136175 0.0000074653 0.0000122898 0.0000692571 0.0000458009 0.0000087146 0.0000062001 0.0000204265 0.0000509161 0.0000421588 0.0000042735 0.0000223457 0.0000264638 0.0000096705 0.0000019225 0.0000134060 0.0000581666 0.0001163668 0.0000069879 0.0000207738 0.0000301115 0.0000081430 0.0000235186 0.0000218661 0.0000728960 0.0000744327 0.0000795186 0.0000090044 0.0000791421 0.0000033695 0.0000338837 0.0000163636 0.0000037412 0.0000089103 0.0000222467 0.0000323320 0.0000315138 0.0000289688 0.0000209020 0.0000060095 0.0000219127 0.0000137021 0.0000218295 0.0000040846 0.0000588538 0.0000080960 0.0000051725 0.0000113839 0.0000607062 0.0000876106 0.0000141524 0.0000074273 0.0000051280 0.0000503714 0.0000601895 0.0000343511 0.0000376541 0.0000593541 0.0000512593 0.0000147335 0.0000058038 0.0000105405 0.0000042961 0.0000067287 0.0000083722 0.0000098040 0.0000055146 0.0000459198 0.0000166899 0.0000076987 0.0000327335 0.0000234165 0.0000008313 0.0000054672 0.0000595217 0.0000461654 0.0000196906 0.0000226398 0.0000418958 0.0000146877 0.0000080112 0.0000069359 0.0000337507 0.0000269931 0.0000105299 0.0000220850 0.0000404647 0.0000195145 0.0000139331 0.0000139100 0.0000066535 0.0000151902 0.0000080097 0.0000101317 0.0000157845 0.0000149807 0.0000045962 0.0000049911 0.0000516750 0.0000116050 0.0000607594 0.0000296162 0.0000318791 0.0000087263 0.0000188208 0.0000046770 0.0000027904 0.0000038502 0.0000651794 0.0000062269 0.0000313989 0.0000109174 0.0000235539 0.0000130017 0.0000245632 0.0001357885
        </DataArray>
        <DataArray type="Float32" Name="contact normal" NumberOfComponents="3" format="ascii">
 0.9747534947 -0.1893254249 -0.1183702162 0.1555832456 0.9312624464 0.3294603308 -0.0006369535 0.6164487927 -0.7873947424 -0.2103092888 0.7157909080 -0.6658929186 0.1103535579 -0.0480216860 -0.9927315901 0.2338311879 -0.1107045196 -0.9659541837 0.5992119947 -0.7720010528 -0.2120362230 -0.3785366522 0.6351392321 -0.6732816341 -0.3288793259 0.6782702482 -0.6571056684 -0.1641727121 -0.9501187284 -0.2651824326 -0.8558114331 0.4668466433 0.2228026090 -0.1400015090 -0.4491022217 0.8824436367 -0.1479973645 -0.4748772651 0.8675185088 -0.1169563450 -0.3830501492 0.9162935101 -0.0083257663 0.0626882227 -0.9979984310 0.0267998519 -0.0943894478 -0.9951745576 -0.8319789209 -0.0603915488 0.5515105946 -0.4683993279 0.3948360418 -0.7903838117 -0.3784761215 -0.4904470899 -0.7849952085 0.4266939588 -0.1496622959 0.8919268259 0.4063673460 -0.1798397800 0.8958366110 -0.6620624358 -0.1481318495 -0.7346633829 0.5876513065 -0.7239466188 0.3613408849 -0.6340761059 -0.2069741156 -0.7450565129 -0.0676200797 -0.3232613383 -0.9438906886 -0.7624901179 0.1937278454 -0.6173154316 0.3124967995 -0.0294156628 0.9494632532 -0.7342318087 -0.5295634791 0.4248131034 -0.7988469339 -0.6011022522 0.0227960202 -0.0013722394 -0.9554457917 0.2951634397 0.3770196617 0.7929089704 0.4786977537 0.3335798108 -0.6196452452 -0.7104676488 0.7209787298 0.5217149631 -0.4560736438 0.7537167778 0.4852929273 -0.4431724198 0.2852173221 0.6836305269 -0.6717889415 -0.4732856657 -0.4351835917 -0.7659085586 0.2186445069 -0.1884148045 -0.9574416124 -0.6235797237 0.7261399845 -0.2896015386 -0.5201710945 0.6631028087 0.5382533767 -0.1222969276 -0.0632395798 -0.9904767625 -0.3277457803 0.7301530634 0.5995491702 -0.7229381996 0.6861788621 0.0807398831 0.4062224354 -0.7683128716 -0.4946500424 0.4402996683 -0.7260691361 -0.5281664622 0.1714056684 0.2531758670 0.9521145295 -0.4363237062 -0.6609565204 0.6105391892 -0.9456348209 -0.3248598259 -0.0155202781 0.6139363695 -0.7892948371 0.0097874536 0.5989284352 -0.8008023806 0.0005260631 0.5472233168 0.8316350421 0.0944976103 0.4998138081 0.7781910148 -0.3802695120 0.0644271321 -0.3623452599 0.9298145284 0.7572554807 -0.0105206669 0.6530340362 0.1054396265 0.2946127841 0.9497819711 -0.1808945512 0.8143155269 -0.5515137206 -0.1033738018 0.6607675774 -0.7434380040 -0.0956945193 0.2005373814 -0.9750011885 -0.2508188824 0.5934751557 0.7647725988 0.4793138071 -0.4879094474 -0.7295222035 0.2611724795 -0.8734910042 0.4108556942 -0.4050158940 0.2950862608 -0.8653821262 -0.5610571192 0.6174382536 -0.5513482674 0.6796941987 -0.6364715891 -0.3645815580 0.1152629845 -0.2602507704 -0.9586365218 0.2785694313 -0.2555611896 -0.9257902302 -0.1151250189 -0.6947436011 0.7099841962 -0.1319878880 -0.1363981488 -0.9818221542 0.1889875695 -0.3259858635 0.9262920249 0.1771333871 -0.3355302412 0.9252260375 -0.3539232322 0.6917204844 -0.6294927459 -0.5815538864 -0.3308865607 0.7431750542 -0.6850150547 -0.6446733618 0.3393385204 -0.3519557903 0.0410009993 -0.9351181956 0.2481471492 0.1400597101 -0.9585438279 0.6234596579 0.3239951236 -0.7115653272 0.9444689253 -0.0566727853 0.3236767594 0.9482885247 0.0855582030 0.3056610341 -0.4734744394 0.6020774470 -0.6429033388 -0.5584242906 0.4656565748 0.6865320575 -0.4312480670 0.6832495798 0.5892326505 0.1343172882 0.8425365550 -0.5216234461 -0.6365613514 -0.7535040203 0.1643816819 0.0926934970 -0.3335362516 0.9381692195 0.0489935026 -0.2190280134 0.9744877455 0.3163013358 0.5395983333 -0.7802481039 0.7737813758 0.4542846654 0.4414610121 0.3336672960 0.5760538622 -0.7462091419 0.2731894865 0.6214736287 -0.7342601945 0.8864810429 0.4479894789 -0.1160033935 -0.3028437197 -0.8435985283 -0.4434266620 -0.2974541875 0.9482583126 0.1110278292 -0.3437152890 0.8246731397 0.4491926233 -0.8803492364 -0.1147576417 -0.4602346202 -0.2751892511 -0.8528885526 -0.4436800570 -0.0722185274 -0.8079362620 -0.5848277361 -0.2014319055 0.9574070511 0.2068741789 -0.5934968980 0.7299741934 0.3389677108 -0.3922069951 -0.5327759708 0.7498822827 0.3396769032 0.5385628089 -0.7710834600 0.3863033293 0.5406357871 -0.7473169899 0.3396621335 0.5385619272 -0.7710905820 0.3396581581 0.5385616899 -0.7710924989 0.1126287834 -0.4601071692 0.8806907233 0.1108358288 -0.4528106933 0.8846908472 -0.0837988636 -0.9413527004 -0.3268529393 0.7067003959 -0.6148222262 -0.3500973875 0.4599485199 -0.3548467652 -0.8139601540 -0.2235129856 0.1352071713 0.9652776627 -0.2231859872 0.1348016157 0.9654100370 -0.2230464464 0.1346289494 0.9654663789 -0.2232329927 0.1348599062 0.9653910279 -0.2225816840 0.1340522445 0.9656538664 -0.2236736719 0.1354064690 0.9652125034 -0.2227746925 0.1342918899 0.9655760585 -0.2224717122 0.1339158853 0.9656981272 -0.1802143948 0.0818551499 0.9802155408 -0.2226802413 0.1341857881 0.9656125954 -0.2226649957 0.1344189389 0.9655836828 -0.2230782960 0.1349983163 0.9654074417 0.1669308307 -0.3145195321 -0.9344578972 -0.2215241509 0.1354781062 0.9656980549 0.2534591871 -0.2169895842 -0.9426950519 0.2505243695 -0.2101683253 -0.9450221243 0.4823415649 -0.3851749459 -0.7867571898 0.7374704608 0.4353357632 0.5163526825 0.4636621850 0.3371338152 -0.8193644909 0.8230667363 -0.5670048042 -0.0326603657 0.2197699089 -0.1326077131 -0.9664969641 0.2253248144 -0.1300584080 -0.9655638449 0.2248714862 -0.1264250257 -0.9661519174 0.2037496502 -0.0979238698 -0.9741134409 0.2245762433 -0.1254523076 -0.9663473648 0.1756639211 -0.7374340426 0.6521757582 0.1958965869 0.1959947478 0.9608384807 -0.0155866217 0.4234288955 -0.9057952460 -0.0707423316 0.3607670861 -0.9299691565 -0.1004635059 0.3256041695 -0.9401537155 -0.0743300050 0.1549475980 -0.9851224757 -0.3376629781 0.8585552882 0.3858322568 0.1560672724 -0.5231837143 0.8378077390 -0.3066393892 -0.9367079984 -0.1689686679 0.9259332800 0.1042874232 -0.3630037112 0.5340515687 0.5979797931 0.5976697156 -0.6750125978 -0.6277660620 -0.3876438627 -0.9195211573 0.3290589817 -0.2149442436 0.0689812517 -0.6885761091 0.7218757018 0.0714454366 -0.6715846889 0.7374751218 0.0633501383 -0.3691969014 0.9271895211 0.4348683990 0.8794826506 -0.1933901312 -0.3196937641 -0.5168019929 -0.7941735310 0.2726966036 0.5234745321 -0.8072242418 -0.0187426976 0.0079252931 0.9997929291 -0.0187526042 0.0079555614 0.9997925029 0.0753969880 -0.0381816760 0.9964223270 0.2195143473 -0.5921871044 -0.7753243739 -0.1204671601 0.3287125083 -0.9367154052 -0.1204803435 0.3287233737 -0.9367098966 0.2194857970 -0.5919991469 -0.7754759796 -0.1204920116 0.3287329899 -0.9367050211 0.1357555673 -0.0261297006 0.9903977306 0.2192754286 -0.5917330592 -0.7757385339 0.2181250791 -0.5917941080 -0.7760162264 -0.3181001682 -0.8153437247 0.4837632620 -0.2059579017 0.1752040560 0.9627486076 -0.8647662092 0.4792040682 -0.1501428135 -0.0545677485 0.3320542820 0.9416805799 -0.6879600342 0.4288584702 -0.5854839057 -0.0387801638 -0.7615501608 -0.6469447051 0.1346596507 -0.2781292686 -0.9510577734 0.6640590918 0.3246349011 -0.6735263199 -0.2386603694 -0.2963378036 0.9247838311 -0.1922937582 -0.3520464981 -0.9160165794 -0.1771549367 -0.3510724538 -0.9194369258 -0.1801585206 -0.3565804069 -0.9167296880 -0.8774166153 0.4309641793 0.2107367062 -0.5001130398 0.4190678570 -0.7578054359 0.5889302392 -0.5446892540 -0.5970550979 0.2173579152 -0.1597525403 -0.9629302480 0.9732613603 0.2296966316 0.0013348963 -0.6193045083 0.5275678501 -0.5814929832 0.9097900475 -0.4077869225 0.0774073332 0.6530773909 0.0527565699 -0.7554512994 0.1091591610 0.9771475518 0.1823922686 -0.6847331715 -0.2364429207 0.6893730696 -0.6894332041 -0.2314123266 0.6863892425 -0.6822167738 -0.2397684810 0.6907179953 -0.6643685269 -0.2351559604 0.7094477675 0.4877527088 -0.4803138303 -0.7289690799 0.7528407707 -0.6492553407 -0.1081585712 0.0332315348 0.4261983041 0.9040191761 -0.6546999048 0.4062610995 0.6374323131 -0.0725258678 -0.4846465077 -0.8716982053 -0.5033489977 -0.6987171239 0.5083642073 0.3390232001 0.2884370967 -0.8954704412 -0.2373897879 0.0128345904 -0.9713296875 -0.2615772663 -0.0587879102 -0.9633905311 0.7522931800 0.2694465319 0.6012100613 0.1439889249 -0.6094810683 0.7796153006 -0.4401116377 0.8365796879 0.3262455703 0.2696937709 0.7976550033 0.5394550636 0.2716254213 0.8386190113 0.4721628791 0.2090917453 0.6355657749 -0.7431936408 -0.3845900357 0.7536629834 -0.5329940074 -0.2919884609 0.6684320016 0.6840624225 -0.2519026980 0.6666712031 0.7014945030 -0.1773008869 0.9573722214 0.2280412796 0.3002283937 0.5922483391 -0.7477331185 0.2806569523 0.5827405325 -0.7626566376 -0.2984556589 0.4463287506 -0.8436319494 -0.3000575699 0.4872075583 -0.8201184365 -0.1923620237 -0.5414399748 0.8184372948 -0.1957655525 -0.5312681190 0.8242754601 -0.4403029618 0.6284663434 -0.6412202095 0.0843760751 0.9896477588 0.1160947523 -0.6559089617 -0.6631196673 0.3606324178 -0.6477537475 -0.7391268331 -0.1846797423 0.6216195709 -0.6940319384 -0.3631924801 -0.4377302199 0.6553871757 -0.6155159661 -0.1216843386 0.3523801822 -0.9279122420 -0.2329795008 0.2568499663 -0.9379491708 -0.4786301962 0.7628192082 -0.4347642935 -0.1736933087 0.6566966898 0.7338801620 -0.7734316962 -0.6004151363 -0.2032365013 -0.7640852420 -0.6230804151 -0.1671662025 0.2986764605 0.2188547390 -0.9289214042 0.2974137682 0.2166318620 -0.9298471309 -0.2439408090 0.3579209272 -0.9013242988 0.3978220469 0.4542100408 -0.7971391709 0.3423559469 0.4963675595 -0.7977541297 -0.3679629743 0.7958108385 0.4809244835 -0.3649446076 0.8040899845 0.4693130407 -0.8854919984 0.3731741503 0.2768482877 -0.8869875597 0.3678072327 0.2792327138 0.0322106334 0.0956213350 -0.9948964948 0.0299106999 0.0983229627 -0.9947049538 0.0682001977 0.0531618471 -0.9962542602 0.0336772459 0.0939368508 -0.9950083975 0.0706307486 0.0502707478 -0.9962349870 0.0315068641 0.0964941748 -0.9948347560 0.0697391858 0.0513340517 -0.9962435752 -0.9735257097 0.2172933820 0.0709315073 -0.4238643858 -0.7489801837 -0.5092815202 0.4890334711 -0.6031933803 0.6300825423 0.0011452405 0.0684609517 -0.9976531394 0.1759335741 -0.2961212801 -0.9388075228 0.5084273338 -0.3526532270 -0.7855808983 0.1803345056 -0.9835925090 -0.0050241850 0.9711450398 -0.0971705581 -0.2177962218 -0.2651237842 -0.9614092774 0.0734954452 -0.2908697721 -0.5680916874 0.7698484334 0.6003620585 -0.1235823093 -0.7901220232 0.4877590744 0.4212421158 0.7646215830 -0.0679884914 -0.9155822342 -0.3963416929 -0.1218404223 0.3804196145 -0.9167528720 0.3198451802 -0.2090849188 0.9241117667 -0.6040752607 -0.0347701404 -0.7961683973 -0.2391582537 -0.6359420554 0.7337445276 -0.2315475807 -0.6370180157 0.7352508181 0.8045596581 -0.5925235966 0.0399942996 0.5654855074 -0.0073075009 0.8247258583 0.0996567118 0.7561009821 0.6468228850 -0.1534888919 0.6421903214 -0.7510211390 0.7465836725 0.1815154460 -0.6400507501 0.1414900813 -0.5278187500 -0.8374890591 -0.6001502684 -0.5560383837 -0.5750138879 -0.2655347214 0.5367687726 -0.8008561646 -0.8479756371 -0.3158364531 -0.4256579069 -0.7710762342 -0.1248563154 -0.6243815672 0.3590315123 0.2544340318 -0.8979753318 0.3518003934 0.2536805487 -0.9010453165 0.3589464748 0.2544591525 -0.8980022093 0.4646808560 -0.0593529186 0.8834868042 -0.0936941177 -0.1858388794 -0.9781029206 -0.0848742916 -0.1981191379 -0.9764963706 -0.1138973490 -0.6161838198 -0.7793233566 0.0886072391 0.1653509986 0.9822463054 0.7157395048 -0.2994324373 -0.6309177258 0.8781675975 0.0218720160 0.4778527865 0.4081961530 0.9091311870 -0.0828032940 0.9197918874 -0.1472273234 -0.3637402908 0.4277883844 0.5480298306 -0.7187909313 0.4394537284 0.5374446963 -0.7197455237 0.4455999023 0.4935938567 -0.7468639981 -0.0485450412 -0.6506541049 0.7578209649 -0.0481433055 -0.6506588467 0.7578425215 -0.0497857896 -0.6508243043 0.7575942846 -0.0495878690 -0.6508278253 0.7576042404 -0.0496800599 -0.6508527137 0.7575768190 0.3639454485 -0.0156431716 -0.9312888927 0.9432758026 0.2503106148 -0.2181177581 -0.4285959794 0.5268699921 0.7339710470 -0.4289870080 0.5264443495 0.7340480188 -0.4345503206 0.5250409840 0.7317772776 -0.7262358951 0.3025577726 0.6172845526 -0.0362836329 0.2405678532 -0.9699539195 0.0041081413 0.2892677074 -0.9572394249 0.0163310565 0.3096365428 -0.9507147353 0.2013676216 0.3973572628 -0.8952978759 0.1078069856 0.8494489757 -0.5165405033 -0.3693032178 -0.1432350798 -0.9182041414 -0.2700019020 0.0784262052 -0.9596605146 -0.3530754096 -0.2886813596 0.8899442835 -0.3215969833 -0.9253116408 -0.2009321969 0.2932602098 -0.5837381383 -0.7571315839 -0.0298843090 -0.6451793333 -0.7634464984 0.2668523029 0.3719884834 -0.8890525388 0.3191389947 0.1144388736 -0.9407731110 -0.3964457933 0.0135223457 -0.9179585389 -0.3971952110 0.0123144859 -0.9176515231 -0.3732397534 0.0502437560 -0.9263733866 -0.3734573254 0.0499523090 -0.9263014590 0.1842640228 -0.3894714959 0.9024182643 -0.2694033083 0.0358328642 -0.9623605682 -0.2120217415 0.0192416432 -0.9770755039 -0.0860888965 -0.1622204887 0.9829919709 0.6306707585 -0.6959865485 -0.3433032460 0.6343992989 -0.6933308867 -0.3418037611 -0.2452324358 0.8945716386 -0.3736343612 -0.4035445301 0.9128000758 0.0628317896 -0.5502978109 -0.7400353280 0.3866782029 0.1735300279 0.3615617222 -0.9160570127 0.1744375983 0.3463878790 -0.9217304170 0.3688255718 -0.7351868568 -0.5687424577 -0.4895769398 -0.5444944017 -0.6810581961 0.0874892806 0.4826705802 0.8714211019 0.0729884644 0.4577540217 0.8860778406 0.2545630805 0.7718949587 -0.5825597058 0.2177812858 0.8018579845 -0.5564126923 -0.1614388371 -0.9838683636 0.0770749304 -0.0928248847 0.9011132571 0.4235309182 -0.4452202824 -0.8639969102 -0.2351345132 0.7007710833 -0.1018143120 0.7060833766 0.7780976037 -0.0149364893 0.6279657796 -0.1273399764 -0.6337162603 0.7630126027 -0.1228275505 -0.6298728610 0.7669247497 -0.1273086921 -0.6337412766 0.7629970454 -0.1227973080 -0.6299722057 0.7668479909 -0.1228542994 -0.6300200850 0.7667995263 -0.0929531902 -0.6040513520 0.7915059498 -0.1219521396 -0.6310527647 0.7660940438 -0.0934953153 -0.6037177592 0.7916965916 -0.0933738674 -0.6036222682 0.7917837320 -0.0310417832 0.6017016188 0.7981175162 0.5127394289 0.8092156759 -0.2868244549 0.9208305354 0.2509966793 0.2984489773 -0.0789105884 0.2649600411 -0.9610251275 -0.0744768885 0.2682239033 -0.9604733889 -0.0701534283 0.2713333207 -0.9599253750 0.3275090200 0.4936305388 -0.8056467793 0.6858646143 0.7189731371 0.1125493625 -0.1523924030 -0.6449748336 0.7488551392 -0.1524405394 -0.6449528110 0.7488643092 -0.1524540021 -0.6449504676 0.7488635867 -0.1524058998 -0.6449559855 0.7488686256 -0.1524365350 -0.6449524793 0.7488654100 -0.1524565048 -0.6449501578 0.7488633441 -0.1524532538 -0.6449505322 0.7488636835 -0.1523867430 -0.6449581914 0.7488706243 -0.1524017750 -0.6449564604 0.7488690561 0.0626486970 0.755243288