<?xml version="1.0"?>
<VTKFile type="UnstructuredGrid" version="0.1" byte_order="LittleEndian">
  <UnstructuredGrid>
    <FieldData>
      <DataArray type="Float32" Name="TIME"  NumberOfTuples="1" format="ascii"> 3.4500000000 </DataArray>
      <DataArray type="Int32"   Name="STEP"  NumberOfTuples="1" format="ascii"> 345000 </DataArray>
    </FieldData>
    <Piece NumberOfPoints="399" NumberOfCells="399">
      <Points>
        <DataArray type="Float32" NumberOfComponents="3" format="ascii">
 0.4248653679 0.2068249935 0.0759427531 0.5299832144 0.1286323127 0.0400907067 0.5050732773 0.1472904732 0.1825915510 0.6403306683 0.1082659232 0.1124596792 0.5396124291 0.3646964124 0.2040002463 0.5528625700 0.3591021850 0.2072261113 0.5678908801 0.4472840821 0.1939265194 0.7522014247 0.1787387492 0.1457376521 0.7585132043 0.1855912768 0.1501546946 0.6781370900 0.4551485434 0.1694655517 0.8496087664 0.2321588312 0.1150670984 0.7816291073 0.3733971767 0.0369725060 0.7953317425 0.3703141959 0.0373490437 0.8168259766 0.3857429756 0.0431748638 0.8042875584 0.3963503670 0.2240350463 0.8177013837 0.3880440350 0.2261935485 0.8970056249 0.3686625934 0.1723156628 0.7489575661 0.3245509234 0.6726871389 0.7715935777 0.2992913557 0.6582613168 0.7860262815 0.3639000187 0.5621500732 0.8677399283 0.6052385954 0.5111381173 0.9118153359 0.5556483078 0.5587192369 0.8933346225 0.6065780340 0.4947004995 0.9262234714 0.5446458299 0.5458333898 0.9417327356 0.3093617971 0.5254649179 0.9349240808 0.3343201033 0.5344018867 0.9466583424 0.4740620870 0.4508185847 0.2426832032 0.7997977912 0.0414071173 0.2550042620 0.8173388307 0.0914575096 0.0745410224 0.9091234947 0.1097898964 0.1543236661 0.7223192401 0.0815086476 0.0388482792 0.8885766570 0.1662300050 0.0554832548 0.8047837870 0.1553459565 0.0622454054 0.7985057075 0.1588802506 0.1716657172 0.7198409340 0.1453823627 0.1846703378 0.8263776509 0.1958309140 0.5696625267 0.7614154016 0.2455267327 0.6836955672 0.7584628166 0.2617669998 0.6518269714 0.7389197993 0.1620805253 0.7064495717 0.8129141708 0.2796419575 0.6573951664 0.7424563084 0.1621257972 0.6559149318 0.7439887350 0.1560626256 0.6050539613 0.8504644771 0.2446691949 0.6094908574 0.8548455837 0.2417826734 0.5207959571 0.7623147068 0.0984628801 0.7326502071 0.8581093069 0.2193675105 0.7273891852 0.8568455065 0.2066727776 0.5647758771 0.8549308602 0.1613303394 0.5655435813 0.8555395737 0.1539496696 0.1730880678 0.4807041456 0.3236693567 0.1676983322 0.4846855581 0.4415915385 0.1372091822 0.6603894312 0.2434467247 0.0843619709 0.6890420204 0.2636709430 0.1610015800 0.6613733238 0.2414223734 0.2576849498 0.4522144794 0.3447848648 0.2908212438 0.4616806748 0.4187201222 0.2909891143 0.5655089078 0.4523273831 0.3086334992 0.4589967194 0.2813303601 0.1182090853 0.7733036671 0.4080898997 0.2713210293 0.7854265585 0.2555505214 0.4240762430 0.5343441064 0.4164797138 0.4308569241 0.5455602248 0.4205644706 0.2460010069 0.8876086689 0.3715553217 0.3711240204 0.8402713994 0.4486927476 0.3884547498 0.8571706897 0.4473810356 0.4440475625 0.9114116297 0.2749306933 0.5616935928 0.7792371234 0.4616553588 0.7554628349 0.3393613924 0.5253671433 0.7491420617 0.3251155287 0.5221862625 0.7310402660 0.1923220998 0.5211142591 0.6605271595 0.0750023172 0.2089066168 0.6490922965 0.1078240815 0.2421730938 0.6082326372 0.1071844339 0.3161803897 0.5368084092 0.0942190061 0.3297713087 0.6497661658 0.8867027679 0.4452710334 0.6558272694 0.9007454367 0.3525091898 0.6572067267 0.9097060495 0.3464140759 0.7437350962 0.9446357070 0.5283420912 0.6975281704 0.9102991301 0.3310050956 0.7118966993 0.2412317738 0.2823332890 0.6923338034 0.1618248782 0.4376712723 0.7639624117 0.3793125428 0.3440286687 0.7707358768 0.3872247925 0.3523726777 0.5690854365 0.3189426418 0.3113880522 0.5335511860 0.2357769772 0.4478707228 0.4819228279 0.2672507449 0.3471229656 0.4709345672 0.3273643249 0.5039574459 0.4582435204 0.3355682919 0.5055490541 0.3861278267 0.4139789575 0.4441310799 0.5795572486 0.5972595878 0.5628774401 0.1272842735 0.2954916454 0.0794073652 0.1210214274 0.2920250998 0.0845409587 0.1781407318 0.3772354988 0.0528338836 0.1491843540 0.4388038463 0.0568120932 0.0950512400 0.4146548401 0.1045541196 0.2077573773 0.4386269867 0.0527654237 0.1964212899 0.4344280847 0.0567128116 0.2718647005 0.5419333684 0.0599523329 0.1116353208 0.4730192330 0.1348028834 0.1123441015 0.4827920701 0.1420332265 0.1047364841 0.4920108684 0.1450382647 0.0995443317 0.5073278585 0.1534452002 0.1196637754 0.6091638459 0.0768628448 0.1243077240 0.6141209373 0.0785435886 0.0731066687 0.6660882628 0.2039451446 0.0764848639 0.6738814123 0.1942216075 0.1368992338 0.3952858913 0.2410299179 0.2422130415 0.3041289926 0.2229841425 0.2365963836 0.2958150507 0.2228483638 0.2487066709 0.3044898245 0.2244117062 0.2293353075 0.2902092365 0.2219679963 0.2433829715 0.2948293117 0.2245372040 0.2197442535 0.2869283132 0.2202319598 0.2548630545 0.3066654398 0.2255144547 0.2368431781 0.2880811962 0.2239869025 0.2496211156 0.2953273753 0.2258874787 0.2609598044 0.3107895103 0.2263357595 0.2673065020 0.3172669794 0.2268943479 0.2743124511 0.3269064614 0.2271852270 0.0603279290 0.3238596433 0.2405523174 0.2818530925 0.3248939447 0.2291691606 0.2734195027 0.3270488785 0.3139740184 0.2819439110 0.3344277685 0.3145350406 0.0744057738 0.2508631195 0.2704875440 0.0724359886 0.1488445483 0.2300776110 0.1130157594 0.0685987901 0.2994134926 0.1289099889 0.0610864142 0.3107440550 0.2422528386 0.1318704128 0.3407276571 0.2508573864 0.1370577580 0.3419975626 0.2667433095 0.1556164851 0.3433604260 0.2741724711 0.1652458852 0.3438922799 0.2824436162 0.1696903617 0.3451599331 0.8679184951 0.1866464162 0.4388060643 0.8336813751 0.1057840555 0.4125782683 0.7587852040 0.1533899392 0.5977300207 0.7548306642 0.1422531430 0.5935169485 0.7470160298 0.1331137628 0.5912837917 0.2973170039 0.2801244227 0.5031614639 0.2898199075 0.2700268670 0.4140873888 0.2534999720 0.3450423254 0.3698623726 0.3102809720 0.3803418498 0.4286195425 0.6312903315 0.7388021151 0.5144402986 0.6934320954 0.6467628941 0.3835487092 0.7179981627 0.8411223902 0.5228730552 0.7601122206 0.7119191288 0.4431569482 0.7150666721 0.7763954203 0.3773384048 0.7224905592 0.7765642344 0.3764748435 0.7217476389 0.7830361585 0.3798931124 0.5481878257 0.5178808426 0.2034164533 0.6016768305 0.5231814757 0.2544418821 0.6024647300 0.5427585476 0.2596854621 0.6200431787 0.5473502624 0.0836203379 0.6262674192 0.5623853161 0.0836986983 0.6399063716 0.5592324151 0.0832586831 0.7413564732 0.6640245299 0.2510468316 0.8187173635 0.4748235213 0.2427181508 0.8265615898 0.4850379654 0.2453606522 0.7524091781 0.6663456449 0.2524257069 0.8342692553 0.4949638537 0.2478045818 0.7588451167 0.7526337933 0.1137494650 0.7644304472 0.6690101589 0.2538318398 0.7782257158 0.6723029666 0.2552952671 0.8026213450 0.7665640084 0.1615334613 0.8794305899 0.6238428723 0.0942657709 0.9217428630 0.5592532357 0.1912936083 0.8981099353 0.6354671093 0.0942522554 0.9265939603 0.6781192557 0.2684882209 0.9125148965 0.7262488169 0.2334561026 0.9396904753 0.6711482032 0.2630031608 0.3658526710 0.5765590286 0.0833478174 0.4803346624 0.7324426424 0.0279596312 0.4430328454 0.6659642038 0.0961068493 0.4495916169 0.6639643254 0.0952664514 0.4523356468 0.6598795800 0.0965929793 0.3894142619 0.1711519159 0.4216737886 0.3343289384 0.0835968009 0.4717569241 0.1711621324 0.1840712180 0.3885516523 0.2163973617 0.1306980197 0.4587597385 0.1403156912 0.0872440386 0.4244191168 0.9285706197 0.4500576928 0.5810534088 0.2542665775 0.1549622418 0.0768239613 0.2905355632 0.1241711555 0.1289600020 0.3212521116 0.0796905421 0.1134315106 0.3626135379 0.1664949659 0.0989909271 0.3618115536 0.1720329135 0.1001073700 0.3650572390 0.1699175886 0.1024751242 0.3680818467 0.1736262419 0.1065975100 0.3291196506 0.2036808804 0.1572361883 0.3370096182 0.2091281906 0.1616366213 0.0617462607 0.1503434621 0.5058005262 0.1851541266 0.1663345100 0.5386195385 0.1499010690 0.2658914962 0.5712995624 0.1483448042 0.2522249444 0.4787911361 0.0408593851 0.9382737853 0.1632792902 0.1579120436 0.9508842062 0.1726205865 0.1685811479 0.9468865837 0.1683305020 0.4623075633 0.4848401298 0.1661080008 0.4577480475 0.4752221407 0.1662386950 0.5258210783 0.3954496367 0.2669789742 0.8807305290 0.5609999991 0.0484153291 0.8724848106 0.5657484443 0.0455646871 0.8788721697 0.5639565683 0.0436093767 0.9528857881 0.5564837816 0.0824619556 0.0848609518 0.9509142642 0.2972595399 0.0909301520 0.9527340962 0.2984105670 0.7712012716 0.0774324511 0.2849992195 0.7320444278 0.0975390939 0.3049634992 0.7245535405 0.0995461042 0.3031239485 0.8351612151 0.1252680242 0.3223784041 0.8416793672 0.1387117408 0.3278997758 0.7707173570 0.1908853654 0.2038463837 0.7747345201 0.1947183848 0.2066768819 0.3426256571 0.1902183048 0.5344571526 0.3550209520 0.1906350919 0.5362006333 0.4139989348 0.2829446228 0.5664119802 0.9549002069 0.6061799383 0.3610198070 0.8663819352 0.6117988244 0.4001119319 0.8999167291 0.4790679398 0.3659215469 0.9022697718 0.4738063134 0.3628356178 0.8960220613 0.4718840297 0.3635562202 0.9027216454 0.3807540369 0.2926227216 0.8058064708 0.0773901569 0.5900193997 0.3432506302 0.9113997384 0.0686958192 0.3482559707 0.9041869513 0.0728548068 0.2973773328 0.8399039513 0.0897857724 0.2988437929 0.8343469796 0.0890976967 0.8006523560 0.6605801196 0.3595342763 0.6844023762 0.6155006796 0.3399598981 0.6751674538 0.6201202820 0.3384223084 0.1505748538 0.9040890724 0.4534406467 0.1568602653 0.9069180262 0.4543829037 0.1183438782 0.9135208933 0.2299885249 0.1206151110 0.9131855383 0.2376251210 0.2538579668 0.3186001559 0.1147663105 0.2556207466 0.3240385097 0.1154065111 0.2607367900 0.3190386895 0.1151259349 0.2621694046 0.3245768819 0.1156871938 0.2673289736 0.3190360965 0.1154431749 0.2631783618 0.3301130530 0.1161660006 0.2685369173 0.3247186872 0.1158617526 0.3468127415 0.2670678929 0.0577852953 0.2798051457 0.4118682032 0.0597694025 0.1971453619 0.4195477358 0.3309924838 0.3175369331 0.4047896185
[...]
      <PointData Scalars="overlap">
        <DataArray type="Float32" Name="overlap" format="ascii">
 0.0002255448 0.0000176436 0.0002059668 0.0000273131 0.0000867545 0.0000336036 0.0000068718 0.0000518436 0.0002480539 0.0002509998 0.0001092241 0.0000488566 0.0000731458 0.0004926499 0.0000274757 0.0002316466 0.0000931149 0.0000060046 0.0000061576 0.0001280894 0.0000225169 0.0000494202 0.0000312317 0.0000299742 0.0000237573 0.0000096357 0.0001205641 0.0000835636 0.0001928290 0.0001199972 0.0000301089 0.0000289579 0.0000076164 0.0000868955 0.0002831089 0.0000288516 0.0002002345 0.0000835078 0.0000471574 0.0000981712 0.0001041068 0.0001685761 0.0000240541 0.0000127201 0.0001837451 0.0000525780 0.0000015020 0.0000530652 0.0001663398 0.0000604172 0.0000792997 0.0002215509 0.0000634117 0.0000342658 0.0000158886 0.0000083538 0.0000553011 0.0002891878 0.0001526386 0.0000512068 0.0001176225 0.0000172650 0.0000946101 0.0000953448 0.0000257914 0.0003203226 0.0000196556 0.0000905758 0.0000904848 0.0000191194 0.0000292485 0.0000610381 0.0000073155 0.0000862546 0.0000185413 0.0000016210 0.0000080401 0.0000088156 0.0000385975 0.0001861617 0.0000088609 0.0000307312 0.0002619891 0.0001151108 0.0000370216 0.0001254333 0.0000099889 0.0000137477 0.0000040334 0.0000160394 0.0000165849 0.0000397109 0.0000071340 0.0000395595 0.0000270796 0.0001011980 0.0001229525 0.0000461896 0.0000056421 0.0000081123 0.0000276635 0.0000246508 0.0000823914 0.0000447070 0.0000528654 0.0000485839 0.0000602939 0.0000762409 0.0000621716 0.0000974827 0.0000384301 0.0000569297 0.0000136833 0.0001104422 0.0000157742 0.0000254794 0.0001252203 0.0001385231 0.0001235661 0.0000801339 0.0001385058 0.0000159384 0.0000304888 0.0000370286 0.0000327067 0.0000591475 0.0000283864 0.0000085802 0.0000406191 0.0001086124 0.0000463668 0.0000186354 0.0000024392 0.0000397378 0.0000015850 0.0000123383 0.0000049103 0.0000335688 0.0000388287 0.0000606153 0.0000185295 0.0000169785 0.0000081285 0.0000066553 0.0000121408 0.0000222261 0.0000204042 0.0000127094 0.0000105624 0.0000260038 0.0000088240 0.0001701865 0.0000142507 0.0000456284 0.0000110549 0.0000461944 0.0001710795 0.0000240744 0.0001047559 0.0002023298 0.0000361843 0.0000389363 0.0001533931 0.0000032661 0.0000396615 0.0002881319 0.0000076384 0.0000182665 0.0000145092 0.0000432855 0.0000043731 0.0000132230 0.0000081187 0.0000748777 0.0000376348 0.0000597107 0.0000612845 0.0000358073 0.0000605786 0.0000171459 0.0000350805 0.0000001405 0.0000569273 0.0000125740 0.0000174293 0.0000518039 0.0000189589 0.0000527628 0.0000300724 0.0000299680 0.0000204392 0.0000079563 0.0000286982 0.0000113096 0.0000229372 0.0000147266 0.0000044857 0.0000260621 0.0000157139 0.0000056313 0.0000674715 0.0000368232 0.0000021892 0.0000127399 0.0000078462 0.0000401152 0.0000105401 0.0000492456 0.0000640419 0.0000374609 0.0002483066 0.0000717747 0.0000078771 0.0000103636 0.0000072418 0.0000072018 0.0000116091 0.0000366822 0.0000337629 0.0000537353 0.0000649293 0.0000026301 0.0000081007 0.0000883080 0.0000310569 0.0000607670 0.0000853424 0.0000025108 0.0000074644 0.0000556883 0.0000900718 0.0000004429 0.0000286797 0.0000798180 0.0001171324 0.0003507997 0.0003215454 0.0000396989 0.0000255632 0.0001376619 0.0001623409 0.0000230152 0.0000389601 0.0000070235 0.0000153310 0.0000604141 0.0000177141 0.0000217730 0.0000120726 0.0000310975 0.0000744972 0.0000534791 0.0000057896 0.0000328590 0.0000231521 0.0000209100 0.0000334890 0.0000189664 0.0000233683 0.0000274930 0.0000620098 0.0000032009 0.0000057266 0.0000214882 0.0000013260 0.0000081646 0.0000690523 0.0002011784 0.0001005648 0.0000706204 0.0000617930 0.0000254583 0.0000535326 0.0000845799 0.0000196905 0.0000506338 0.0000230264 0.0001328921 0.0000053861 0.0000218224 0.0000399121 0.0000061607 0.0000000329 0.0000137048 0.0000075176 0.0000123161 0.0000692308 0.0000456967 0.0000088301 0.0000061788 0.0000204457 0.0000508989 0.0000421115 0.0000041709 0.0000223505 0.0000264706 0.0000096854 0.0000019479 0.0000134303 0.0000581569 0.0001164071 0.0000069971 0.0000207787 0.0000301213 0.0000081394 0.0000235599 0.0000218899 0.0000728989 0.0000743795 0.0000795250 0.0000089596 0.0000790706 0.0000033439 0.0000338037 0.0000163030 0.0000038082 0.0000088652 0.0000220757 0.0000322975 0.0000314971 0.0000289781 0.0000208781 0.0000060162 0.0000218350 0.0000137305 0.0000218444 0.0000041303 0.0000588014 0.0000081137 0.0000050716 0.0000113539 0.0000606719 0.0000876195 0.0000141506 0.0000073979 0.0000051422 0.0000503586 0.0000601930 0.0000343279 0.0000376735 0.0000593465 0.0000512667 0.0000147137 0.0000057878 0.0000106114 0.0000041895 0.0000068036 0.0000083944 0.0000097943 0.0000055237 0.0000459268 0.0000166981 0.0000077073 0.0000327403 0.0000234245 0.0000008396 0.0000054755 0.0000595283 0.0000461723 0.0000196536 0.0000226551 0.0000419015 0.0000146917 0.0000080245 0.0000069264 0.0000338274 0.0000270036 0.0000105115 0.0000220903 0.0000404614 0.0000195177 0.0000139688 0.0000138954 0.0000066712 0.0000151794 0.0000079584 0.0000101343 0.0000158213 0.0000149651 0.0000045914 0.0000050406 0.0000516809 0.0000116105 0.0000607942 0.0000296861 0.0000320048 0.0000085394 0.0000188767 0.0000047195 0.0000028033 0.0000037920 0.0000652067 0.0000062582 0.0000314121 0.0000107657 0.0000234959 0.0000129890 0.0000245855 0.0001358471
        </DataArray>
        <DataArray type="Float32" Name="contact normal" NumberOfComponents="3" format="ascii">
 0.9747529122 -0.1893283195 -0.1183703833 0.1555837911 0.9312611595 0.3294637110 -0.0006370565 0.6164505048 -0.7873934018 -0.2103108234 0.7157898067 -0.6658936177 0.1103517428 -0.0480206531 -0.9927318418 0.2338291049 -0.1107036234 -0.9659547906 0.5992137051 -0.7720000088 -0.2120351906 -0.3785365802 0.6351396349 -0.6732812946 -0.3288792384 0.6782706542 -0.6571052930 -0.1641734044 -0.9501180421 -0.2651844629 -0.8558115044 0.4668462688 0.2228031200 -0.1400017489 -0.4491011487 0.8824441447 -0.1479976253 -0.4748762718 0.8675190081 -0.1169565687 -0.3830489978 0.9162939628 -0.0083266855 0.0626890789 -0.9979983696 0.0267989108 -0.0943873726 -0.9951747798 -0.8319801313 -0.0603902855 0.5515089070 -0.4683983172 0.3948389271 -0.7903829692 -0.3784776759 -0.4904429535 -0.7849970435 0.4266965797 -0.1496565463 0.8919265368 0.4063705401 -0.1798404425 0.8958350291 -0.6620594522 -0.1481317063 -0.7346661006 0.5876508011 -0.7239457703 0.3613434067 -0.6340729588 -0.2069738283 -0.7450592710 -0.0676225059 -0.3232573590 -0.9438918776 -0.7624902188 0.1937305326 -0.6173144636 0.3124973717 -0.0294131909 0.9494631414 -0.7342304417 -0.5295644624 0.4248142402 -0.7988456042 -0.6011039099 0.0227989084 -0.0013726666 -0.9554456840 0.2951637862 0.3770190746 0.7929078913 0.4787000034 0.3335814923 -0.6196444443 -0.7104675577 0.7209783262 0.5217166171 -0.4560723897 0.7537165185 0.4852945226 -0.4431711138 0.2852205399 0.6836323894 -0.6717856799 -0.4732862000 -0.4351829874 -0.7659085718 0.2186416411 -0.1884117118 -0.9574428754 -0.6235795783 0.7261398284 -0.2896022430 -0.5201707435 0.6631017239 0.5382550523 -0.1222938851 -0.0632401072 -0.9904771045 -0.3277452855 0.7301523512 0.5995503081 -0.7229379247 0.6861788814 0.0807421813 0.4062215288 -0.7683144078 -0.4946484007 0.4402992123 -0.7260706594 -0.5281647482 0.1714030805 0.2531775953 0.9521145358 -0.4363227626 -0.6609570664 0.6105392725 -0.9456344248 -0.3248610628 -0.0155185243 0.6139354422 -0.7892955221 0.0097903884 0.5989277149 -0.8008029172 0.0005291906 0.5472245062 0.8316345748 0.0944948346 0.4998136331 0.7781899575 -0.3802719056 0.0644273019 -0.3623448653 0.9298146704 0.7572547638 -0.0105194625 0.6530348869 0.1054388926 0.2946164824 0.9497809054 -0.1808915379 0.8143154401 -0.5515148371 -0.1033735299 0.6607682232 -0.7434374678 -0.0956903181 0.2005360652 -0.9750018716 -0.2508179994 0.5934762124 0.7647720683 0.4793136846 -0.4879032068 -0.7295264577 0.2611733949 -0.8734910494 0.4108550164 -0.4050138313 0.2950856475 -0.8653833007 -0.5610561191 0.6174380736 -0.5513494867 0.6796967837 -0.6364683988 -0.3645823084 0.1152600359 -0.2602485036 -0.9586374917 0.2785664305 -0.2555594516 -0.9257916129 -0.1151245761 -0.6947445158 0.7099833729 -0.1319883530 -0.1363938921 -0.9818226830 0.1889875630 -0.3259852909 0.9262922277 0.1771334153 -0.3355296465 0.9252262477 -0.3539249547 0.6917219718 -0.6294901430 -0.5815530040 -0.3308845837 0.7431766249 -0.6850152980 -0.6446715069 0.3393415533 -0.3519549504 0.0410013251 -0.9351184974 0.2481521554 0.1400574429 -0.9585428631 0.6234554188 0.3239985652 -0.7115674743 0.9444685777 -0.0566724820 0.3236778266 0.9482882357 0.0855585022 0.3056618472 -0.4734755046 0.6020738627 -0.6429059109 -0.5584265361 0.4656564471 0.6865303176 -0.4312486600 0.6832503513 0.5892313218 0.1343174544 0.8425342092 -0.5216271923 -0.6365640958 -0.7535031712 0.1643749460 0.0926931501 -0.3335332346 0.9381703264 0.0489928894 -0.2190273417 0.9744879273 0.3163002794 0.5395952529 -0.7802506625 0.7737818556 0.4542842024 0.4414606476 0.3336712574 0.5760521254 -0.7462087113 0.2731934230 0.6214723365 -0.7342598237 0.8864814817 0.4479883500 -0.1160044002 -0.3028352927 -0.8435988288 -0.4434318454 -0.2974540448 0.9482585480 0.1110262009 -0.3437155420 0.8246736467 0.4491914989 -0.8803490352 -0.1147577288 -0.4602349834 -0.2751887011 -0.8528887891 -0.4436799434 -0.0722181323 -0.8079365782 -0.5848273480 -0.2014317496 0.9574070515 0.2068743290 -0.5934969220 0.7299741459 0.3389677713 -0.3922072036 -0.5327758525 0.7498822577 0.3396786869 0.5385620382 -0.7710832126 0.3863050711 0.5406350061 -0.7473166546 0.3396639173 0.5385611566 -0.7710903345 0.3396599421 0.5385609192 -0.7710922514 0.1126297958 -0.4601087831 0.8806897506 0.1108368393 -0.4528123077 0.8846898943 -0.0837971787 -0.9413522908 -0.3268545508 0.7067007514 -0.6148216475 -0.3500976859 0.4599473341 -0.3548469141 -0.8139607591 -0.2235142210 0.1352090741 0.9652771101 -0.2231872226 0.1348035170 0.9654094859 -0.2230476835 0.1346308521 0.9654658277 -0.2232342272 0.1348618065 0.9653904769 -0.2225829214 0.1340541454 0.9656533173 -0.2236749043 0.1354083689 0.9652119512 -0.2227759308 0.1342937929 0.9655755081 -0.2224729491 0.1339177851 0.9656975788 -0.1802157492 0.0818569977 0.9802151374 -0.2226814805 0.1341876917 0.9656120451 -0.2226662347 0.1344208433 0.9655831320 -0.2230795348 0.1350002226 0.9654068889 0.1669328746 -0.3145195027 -0.9344575420 -0.2215253824 0.1354800109 0.9656975052 0.2534603427 -0.2169913020 -0.9426943458 0.2505255534 -0.2101700941 -0.9450214170 0.4823412643 -0.3851752217 -0.7867572391 0.7374699327 0.4353368780 0.5163524969 0.4636595259 0.3371346089 -0.8193656690 0.8230689960 -0.5670015373 -0.0326601353 0.2197694406 -0.1326080063 -0.9664970303 0.2253243409 -0.1300587042 -0.9655639155 0.2248710022 -0.1264252961 -0.9661519947 0.2037492235 -0.0979240753 -0.9741135095 0.2245757455 -0.1254525555 -0.9663474483 0.1756662774 -0.7374340906 0.6521750693 0.1958992749 0.1959942476 0.9608380347 -0.0155857165 0.4234283567 -0.9057955135 -0.0707418262 0.3607668699 -0.9299692788 -0.1004632259 0.3256041218 -0.9401537619 -0.0743356464 0.1549490226 -0.9851218260 -0.3376599997 0.8585554142 0.3858345828 0.1560650043 -0.5231818214 0.8378093435 -0.3066408415 -0.9367075020 -0.1689687840 0.9259391146 0.1042896021 -0.3629882022 0.5340506015 0.5979807947 0.5976695778 -0.6750085737 -0.6277702826 -0.3876440348 -0.9195180966 0.3290637921 -0.2149499729 0.0689796964 -0.6885753937 0.7218765328 0.0714436780 -0.6715839398 0.7374759743 0.0633471252 -0.3691965309 0.9271898744 0.4348624171 0.8794861048 -0.1933878735 -0.3196933099 -0.5168046050 -0.7941720140 0.2726981654 0.5234729787 -0.8072247216 -0.0187410909 0.0079254977 0.9997929576 -0.0187509991 0.0079557669 0.9997925314 0.0753983307 -0.0381819775 0.9964222139 0.2195142747 -0.5921875987 -0.7753240169 -0.1204668625 0.3287096320 -0.9367164527 -0.1204800458 0.3287204974 -0.9367109443 0.2194857242 -0.5919996386 -0.7754756249 -0.1204917139 0.3287301136 -0.9367060688 0.1357504659 -0.0261289958 0.9903984484 0.2192753554 -0.5917335478 -0.7757381819 0.2181250045 -0.5917945920 -0.7760158783 -0.3181047336 -0.8153448265 0.4837584030 -0.2059598499 0.1752022642 0.9627485169 -0.8647672987 0.4792020124 -0.1501430998 -0.0545700885 0.3320527230 0.9416809941 -0.6879600548 0.4288590424 -0.5854834624 -0.0387910462 -0.7615473821 -0.6469473237 0.1346562163 -0.2781323971 -0.9510573448 0.6640589179 0.3246356225 -0.6735261436 -0.2386497336 -0.2963445800 0.9247844044 -0.1922910787 -0.3520480165 -0.9160165583 -0.1771522922 -0.3510740004 -0.9194368448 -0.1801558615 -0.3565819232 -0.9167296208 -0.8774169797 0.4309626040 0.2107384107 -0.5001075377 0.4190643536 -0.7578110043 0.5889301301 -0.5446894246 -0.5970550499 0.2173349113 -0.1597666160 -0.9629331050 0.9732621008 0.2296935063 0.0013327512 -0.6193020154 0.5275724965 -0.5814914226 0.9097898230 -0.4077872068 0.0774084740 0.6530764323 0.0527520766 -0.7554524419 0.1091674430 0.9771513526 0.1823669473 -0.6847329829 -0.2364395422 0.6893744157 -0.6894330450 -0.2314089280 0.6863905481 -0.6822166140 -0.2397650995 0.6907193270 -0.6643683607 -0.2351524854 0.7094490750 0.4877533762 -0.4803164255 -0.7289669234 0.7528406895 -0.6492564538 -0.1081524546 0.0332304259 0.4261990085 0.9040188847 -0.6547088926 0.4062292015 0.6374434107 -0.0725003433 -0.4846459086 -0.8717006616 -0.5033487055 -0.6987182859 0.5083628995 0.3390248375 0.2884382031 -0.8954694649 -0.2373906233 0.0128347764 -0.9713294809 -0.2615777297 -0.0587870958 -0.9633904550 0.7522952546 0.2694431341 0.6012089882 0.1439886980 -0.6094805459 0.7796157509 -0.4401081998 0.8365802027 0.3262488879 0.2696941433 0.7976567864 0.5394522409 0.2716256832 0.8386202894 0.4721604583 0.2090928462 0.6355673984 -0.7431919427 -0.3845948414 0.7536603933 -0.5329942022 -0.2919903963 0.6684309206 0.6840626527 -0.2519046081 0.6666702466 0.7014947261 -0.1772998351 0.9573720615 0.2280427687 0.3002277626 0.5922488711 -0.7477329505 0.2806563465 0.5827410395 -0.7626564732 -0.2984579470 0.4463291456 -0.8436309310 -0.3000597903 0.4872079591 -0.8201173860 -0.1923619289 -0.5414407495 0.8184368046 -0.1957654218 -0.5312689648 0.8242749460 -0.4402973216 0.6284648367 -0.6412255591 0.0843769309 0.9896482065 0.1160903140 -0.6559101814 -0.6631198930 0.3606297845 -0.6477574821 -0.7391244756 -0.1846760786 0.6216172998 -0.6940339526 -0.3631925181 -0.4377322916 0.6553847084 -0.6155171199 -0.1216856232 0.3523781136 -0.9279128592 -0.2329804489 0.2568475264 -0.9379496034 -0.4786314720 0.7628189030 -0.4347634244 -0.1736991520 0.6566941852 0.7338810202 -0.7734330959 -0.6004137430 -0.2032352906 -0.7640867108 -0.6230789465 -0.1671649628 0.2986766400 0.2188542271 -0.9289214671 0.2974139521 0.2166313489 -0.9298471916 -0.2439415653 0.3579183182 -0.9013251301 0.3978236109 0.4542084691 -0.7971392859 0.3423575029 0.4963660163 -0.7977544221 -0.3679635614 0.7958128111 0.4809207701 -0.3649451888 0.8040919148 0.4693092815 -0.8854917471 0.3731742147 0.2768490046 -0.8869872928 0.3678073535 0.2792334027 0.0322123613 0.0956196951 -0.9948965965 0.0299124286 0.0983213317 -0.9947050630 0.0682018398 0.0531601531 -0.9962542382 0.0336789665 0.0939352132 -0.9950084939 0.0706323824 0.0502690532 -0.9962349567 0.0315085839 0.0964925474 -0.9948348594 0.0697408181 0.0513323627 -0.9962435479 -0.9735251141 0.2172958592 0.0709320932 -0.4238622747 -0.7489799304 -0.5092836498 0.4890334414 -0.6031947591 0.6300812454 0.0011456299 0.0684618742 -0.9976530756 0.1759346498 -0.2961220009 -0.9388070939 0.5084275126 -0.3526514415 -0.7855815841 0.1803346382 -0.9835924864 -0.0050238351 0.9711443899 -0.0971682153 -0.2178001652 -0.2651240183 -0.9614088618 0.0735000361 -0.2908718464 -0.5680901134 0.7698488111 0.6003624520 -0.1235835911 -0.7901215237 0.4877596013 0.4212415250 0.7646215724 -0.0679837921 -0.9155831263 -0.3963404380 -0.1218267082 0.3804256430 -0.9167521930 0.3198450314 -0.2090855722 0.9241116704 -0.6040736170 -0.0347733480 -0.7961695043 -0.2391579963 -0.6359424870 0.7337442375 -0.2315473636 -0.6370184412 0.7352505178 0.8045590505 -0.5925244772 0.0399934761 0.5654894941 -0.0073037220 0.8247231582 0.0996563503 0.7561021262 0.6468216034 -0.1534900882 0.6421921058 -0.7510193687 0.7465819151 0.1815163314 -0.6400525490 0.1414913062 -0.5278200223 -0.8374880503 -0.6001485752 -0.5560407100 -0.5750134055 -0.2655351766 0.5367675032 -0.8008568645 -0.8479764225 -0.3158367430 -0.4256561272 -0.7710758588 -0.1248569343 -0.6243819071 0.3590316287 0.2544336182 -0.8979754025 0.3518005217 0.2536801250 -0.9010453857 0.3589466018 0.2544587398 -0.8980022755 0.4646809401 -0.0593547500 0.8834866369 -0.0936915263 -0.1858408613 -0.9781027922 -0.0848715379 -0.1981207975 -0.9764962732 -0.1138906087 -0.6161848020 -0.7793235650 0.0886083535 0.1653485539 0.9822466164 0.7157375719 -0.2994251702 -0.6309233675 0.8781709379 0.0218711144 0.4778466890 0.4082022259 0.9091281752 -0.0828064244 0.9197884020 -0.1472297065 -0.3637481397 0.4277882578 0.5480304129 -0.7187905627 0.4394536359 0.5374452499 -0.7197451669 0.4455998125 0.4935945001 -0.7468636265 -0.0485452434 -0.6506545136 0.7578206010 -0.0481435062 -0.6506592555 0.7578421577 -0.0497859903 -0.6508247128 0.7575939205 -0.0495880679 -0.6508282338 0.7576038764 -0.0496802563 -0.6508531222 0.7575764552 0.3639447604 -0.0156476619 -0.9312890862 0.9432761033 0.2503099407 -0.2181172311 -0.4285958563 0.5268636517 0.7339756702 -0.4289868843 0.5264380089 0.7340526384 -0.4345501832 0.5250346745 0.7317818862 -0.7262386515 0.3025512999 0.6172844823 -0.0362849932 0.2405674463 -0.9699539695 0.0041068684 0.2892673867 -0.9572395273 0.0163296400 0.3096360454 -0.9507149216 0.2013665370 0.3973591824 -0.8952972679 0.1078046405 0.8494496842 -0.5165398276 -0.3693039711 -0.1432352482 -0.9182038121 -0.2700027382 0.0784261876 -0.9596602808 -0.3530753246 -0.2886772873 0.8899456382 -0.3215968682 -0.9253119484 -0.2009309645 0.2932605600 -0.5837393934 -0.7571304805 -0.0298837147 -0.6451806261 -0.7634454291 0.2668535822 0.3719854410 -0.8890534277 0.3191371137 0.1144341123 -0.9407743282 -0.3964497297 0.0135188308 -0.9179568906 -0.3971991542 0.0123109458 -0.9176498638 -0.3732438857 0.0502403496 -0.9263719065 -0.3734614644 0.0499488886 -0.9262999747 0.1842696191 -0.3894668100 0.9024191440 -0.2694118519 0.0358327992 -0.9623581789 -0.2120302574 0.0192413831 -0.9770736611 -0.0860862545 -0.1622166681 0.9829928328 0.6306790039 -0.6959731427 -0.3433152759 0.6344073255 -0.6933175819 -0.3418158509 -0.2452312240 0.8945728667 -0.3736322161 -0.4035488955 0.9127981859 0.0628312092 -0.5502972205 -0.7400364151 0.3866769628 0.1735296151 0.3615599643 -0.9160577847 0.1744371811 0.3463861238 -0.9217311555 0.3688240685 -0.7351863951 -0.5687440293 -0.4895780307 -0.5444951014 -0.6810568525 0.0874896919 0.4826707530 0.8714209649 0.0729892158 0.4577535563 0.8860780192 0.2545510840 0.7718994138 -0.5825590447 0.2177691891 0.8018618300 -0.5564118850 -0.1614431297 -0.9838674831 0.0770771794 -0.0928259238 0.9011153728 0.4235261890 -0.4452179808 -0.8639974062 -0.2351370489 0.7007713573 -0.1018158532 0.7060828824 0.7780977297 -0.0149381538 0.6279655840 -0.1273338475 -0.6337154923 0.7630142634 -0.1228214320 -0.6298720728 0.7669263770 -0.1273025439 -0.6337404921 0.7629987228 -0.1227911700 -0.6299714009 0.7668496350 -0.1228481425 -0.6300192647 0.7668011867 -0.0929470597 -0.6040503567 0.7915074293 -0.1219459557 -0.6310519278 0.7660957175 -0.0934891705 -0.6037167536 0.7916980841 -0.0933677077 -0.6036212493 0.7917852351 -0.0310438797 0.6016988119 0.7981195508 0.5127361791 0.8092185055 -0.2868222814 0.9208303169 0.2509973560 0.2984490824 -0.0789070785 0.2649546680 -0.9610268971 -0.0744733543 0.2682185051 -0.9604751704 -0.0701498734 0.2713278963 -0.9599271680 0.3274998284 0.4936245527 -0.8056541835 0.6858567195 0.7189803806 0.1125511999 -0.1523919705 -0.6449752835 0.7488548397 -0.1524401068 -0.6449532610 0.7488640097 -0.1524535695 -0.6449509176 0.7488632872 -0.1524054669 -0.6449564355 0.7488683262 -0.1524361023 -0.6449529293 0.7488651105 -0.1524560720 -0.6449506078 0.7488630446 -0.1524528210 -0.6449509823 0.7488633840 -0.1523863103 -0.6449586414 0.7488703248 -0.1524013422 -0.6449569104 0.7488687566 0.0626529970 0.755243390