<?xml version="1.0"?>
<VTKFile type="UnstructuredGrid" version="0.1" byte_order="LittleEndian">
  <UnstructuredGrid>
    <FieldData>
      <DataArray type="Float32" Name="TIME"  NumberOfTuples="1" format="ascii"> 2.8500000000 </DataArray>
      <DataArray type="Int32"   Name="STEP"  NumberOfTuples="1" format="ascii"> 285000 </DataArray>
    </FieldData>
    <Piece NumberOfPoints="399" NumberOfCells="399">
      <Points>
        <DataArray type="Float32" NumberOfComponents="3" format="ascii">
 0.4248655050 0.2068246793 0.0759426047 0.5299833735 0.1286320940 0.0400905913 0.5050734399 0.1472902156 0.1825913756 0.6403308086 0.1082657052 0.1124594658 0.5396125736 0.3646961379 0.2039999736 0.5528627264 0.3591019077 0.2072258340 0.5678909722 0.4472838538 0.1939263096 0.7522015528 0.1787385364 0.1457374177 0.7585133350 0.1855910700 0.1501544575 0.6781372086 0.4551482819 0.1694653120 0.8496088507 0.2321586142 0.1150668976 0.7816292144 0.3733968907 0.0369722930 0.7953318470 0.3703139022 0.0373488453 0.8168260754 0.3857426730 0.0431747038 0.8042876927 0.3963501419 0.2240347113 0.8177015217 0.3880438014 0.2261932520 0.8970057532 0.3686623638 0.1723154124 0.7489574384 0.3245508576 0.6726862494 0.7715934413 0.2992913275 0.6582603509 0.7860261762 0.3639003230 0.5621492671 0.8677400030 0.6052390183 0.5111382166 0.9118153076 0.5556485234 0.5587191137 0.8933347040 0.6065785003 0.4947006195 0.9262235789 0.5446461200 0.5458333913 0.9417326368 0.3093621208 0.5254640154 0.9349240249 0.3343203968 0.5344011044 0.9466583405 0.4740626716 0.4508182019 0.2426831155 0.7997973967 0.0414072785 0.2550041540 0.8173384812 0.0914576795 0.0745408881 0.9091232771 0.1097898241 0.1543235428 0.7223189693 0.0815088573 0.0388480961 0.8885763898 0.1662299416 0.0554830607 0.8047835175 0.1553459698 0.0622452211 0.7985054477 0.1588802658 0.1716655377 0.7198407074 0.1453824515 0.1846701199 0.8263773788 0.1958310367 0.5696624404 0.7614149675 0.2455264365 0.6836954152 0.7584625459 0.2617669298 0.6518268432 0.7389198055 0.1620803975 0.7064493676 0.8129138559 0.2796421040 0.6573950425 0.7424562989 0.1621256614 0.6559148099 0.7439887550 0.1560625160 0.6050536728 0.8504641899 0.2446694882 0.6094905705 0.8548452933 0.2417829707 0.5207958017 0.7623147893 0.0984629703 0.7326499098 0.8581092033 0.2193678014 0.7273888894 0.8568454606 0.2066730401 0.5647755923 0.8549307557 0.1613306264 0.5655433149 0.8555394676 0.1539499590 0.1730884013 0.4807041303 0.3236687931 0.1676988030 0.4846853612 0.4415909811 0.1372093479 0.6603894277 0.2434464342 0.0843621645 0.6890420056 0.2636707269 0.1610017447 0.6613733512 0.2414220534 0.2576852945 0.4522143261 0.3447841842 0.2908216939 0.4616804421 0.4187194365 0.2909896242 0.5655086498 0.4523270200 0.3086336956 0.4589967957 0.2813296845 0.1182093928 0.7733035966 0.4080898598 0.2713212205 0.7854265007 0.2555501578 0.4240766235 0.5343439931 0.4164787205 0.4308572862 0.5455601520 0.4205635142 0.2460013186 0.8876085761 0.3715550858 0.3711244512 0.8402712639 0.4486924545 0.3884551745 0.8571705287 0.4473806296 0.4440477420 0.9114115648 0.2749302426 0.5616940676 0.7792369332 0.4616545003 0.7554626886 0.3393614138 0.5253664886 0.7491419714 0.3251155131 0.5221856798 0.7310409828 0.1923219043 0.5211149145 0.6605276311 0.0750025956 0.2089068628 0.6490925149 0.1078242061 0.2421733214 0.6082326364 0.1071842488 0.3161804060 0.5368084125 0.0942184725 0.3297710939 0.6497657402 0.8867030932 0.4452710993 0.6558267195 0.9007456914 0.3525093011 0.6572061899 0.9097062988 0.3464141795 0.7437349641 0.9446356840 0.5283420686 0.6975276109 0.9102992308 0.3310051341 0.7118964858 0.2412314609 0.2823328208 0.6923336182 0.1618247640 0.4376708493 0.7639622205 0.3793122586 0.3440279439 0.7707356949 0.3872244963 0.3523720208 0.5690852570 0.3189422955 0.3113874202 0.5335509279 0.2357767341 0.4478703407 0.4819227151 0.2672504960 0.3471224129 0.4709343662 0.3273642815 0.5039567478 0.4582433329 0.3355682857 0.5055483014 0.3861274890 0.4139787415 0.4441302697 0.5795570078 0.5972595934 0.5628763412 0.1272843006 0.2954913621 0.0794069139 0.1210214356 0.2920247992 0.0845404793 0.1781409593 0.3772351847 0.0528337846 0.1491846383 0.4388035119 0.0568120046 0.0950513424 0.4146545396 0.1045538262 0.2077576527 0.4386267283 0.0527651031 0.1964215526 0.4344278419 0.0567124990 0.2718649029 0.5419331002 0.0599520652 0.1116355745 0.4730189425 0.1348025590 0.1123443538 0.4827917849 0.1420328951 0.1047367331 0.4920105817 0.1450379301 0.0995445770 0.5073275752 0.1534448571 0.1196639881 0.6091635193 0.0768625774 0.1243079354 0.6141206090 0.0785433301 0.0731068433 0.6660879898 0.2039448068 0.0764850278 0.6738811201 0.1942212635 0.1368991349 0.3952862179 0.2410297408 0.2422127592 0.3041291257 0.2229840029 0.2365960880 0.2958151926 0.2228482382 0.2487063879 0.3044899504 0.2244115712 0.2293350037 0.2902093881 0.2219678772 0.2433826729 0.2948294464 0.2245370864 0.2197439459 0.2869284763 0.2202318404 0.2548627740 0.3066655582 0.2255143201 0.2368428692 0.2880813402 0.2239867945 0.2496208178 0.2953275016 0.2258873655 0.2609595298 0.3107896208 0.2263356208 0.2673062373 0.3172670809 0.2268942000 0.2743122018 0.3269065522 0.2271850631 0.0603277075 0.3238600910 0.2405522940 0.2818528382 0.3248940280 0.2291690083 0.2734193705 0.3270490727 0.3139737558 0.2819437902 0.3344279507 0.3145347637 0.0744054510 0.2508636019 0.2704876555 0.0724354937 0.1488449997 0.2300778913 0.1130151534 0.0685992396 0.2994138302 0.1289094094 0.0610868473 0.3107443693 0.2422523940 0.1318707080 0.3407277444 0.2508569500 0.1370580416 0.3419976417 0.2667428990 0.1556167479 0.3433604917 0.2741720739 0.1652461372 0.3438923438 0.2824432261 0.1696906033 0.3451599847 0.8679189559 0.1866463113 0.4388058482 0.8336816926 0.1057840511 0.4125780441 0.7587864548 0.1533893436 0.5977302467 0.7548318901 0.1422525577 0.5935171686 0.7470172404 0.1331131901 0.5912840142 0.2973154556 0.2801246972 0.5031616660 0.2898193106 0.2700264893 0.4140876285 0.2534997338 0.3450416749 0.3698617753 0.3102801096 0.3803416859 0.4286193050 0.6312908768 0.7388017527 0.5144409960 0.6934317326 0.6467628388 0.3835487986 0.7179985743 0.8411221217 0.5228733750 0.7601121840 0.7119190686 0.4431567022 0.7150661199 0.7763954183 0.3773386154 0.7224900034 0.7765642178 0.3764750299 0.7217470988 0.7830361485 0.3798933217 0.5481875355 0.5178807957 0.2034163261 0.6016765724 0.5231813460 0.2544417505 0.6024644736 0.5427584027 0.2596852895 0.6200427336 0.5473501654 0.0836202295 0.6262669781 0.5623852174 0.0836985853 0.6399059357 0.5592323098 0.0832585585 0.7413562332 0.6640243475 0.2510465744 0.8187170654 0.4748233221 0.2427177283 0.8265612977 0.4850377618 0.2453602290 0.7524089402 0.6663454586 0.2524254383 0.8342689689 0.4949636459 0.2478041580 0.7588447603 0.7526336486 0.1137492388 0.7644302118 0.6690099684 0.2538315587 0.7782254831 0.6723027711 0.2552949716 0.8026210420 0.7665638435 0.1615331646 0.8794301619 0.6238427165 0.0942654209 0.9217425711 0.5592530024 0.1912931271 0.8981095140 0.6354669987 0.0942520005 0.9265937496 0.6781190111 0.2684877742 0.9125146517 0.7262485117 0.2334556142 0.9396902491 0.6711479650 0.2630027076 0.3658527754 0.5765591156 0.0833479204 0.4803343859 0.7324428224 0.0279593460 0.4430327473 0.6659644156 0.0961067076 0.4495915261 0.6639645552 0.0952663261 0.4523355667 0.6598798206 0.0965928675 0.3894140539 0.1711513232 0.4216738639 0.3343283408 0.0835963642 0.4717567502 0.1711619523 0.1840715655 0.3885518957 0.2163969908 0.1306980421 0.4587598696 0.1403152470 0.0872444697 0.4244191713 0.9285707647 0.4500576875 0.5810533587 0.2542667847 0.1549618989 0.0768238689 0.2905358861 0.1241706424 0.1289597628 0.3212527727 0.0796903129 0.1134309797 0.3626136317 0.1664951685 0.0989911843 0.3618116451 0.1720331149 0.1001076304 0.3650573345 0.1699177925 0.1024753805 0.3680819421 0.1736264465 0.1065977639 0.3291193457 0.2036804415 0.1572366890 0.3370092648 0.2091277692 0.1616371398 0.0617458201 0.1503442345 0.5058007408 0.1851537991 0.1663349333 0.5386196251 0.1499010562 0.2658920585 0.5712995519 0.1483446101 0.2522253672 0.4787912391 0.0408593565 0.9382740227 0.1632790419 0.1579120071 0.9508843547 0.1726206661 0.1685811119 0.9468866943 0.1683306040 0.4623076288 0.4848397436 0.1661078002 0.4577481415 0.4752217337 0.1662385432 0.5258213656 0.3954495691 0.2669789242 0.8807307230 0.5610001042 0.0484146333 0.8724850027 0.5657485507 0.0455639947 0.8788723823 0.5639567264 0.0436086423 0.9528858235 0.5564839562 0.0824615690 0.0848605431 0.9509140466 0.2972594905 0.0909297335 0.9527338923 0.2984105470 0.7712012508 0.0774325034 0.2849992232 0.7320443946 0.0975392349 0.3049634339 0.7245535075 0.0995462383 0.3031238802 0.8351612005 0.1252681657 0.3223783030 0.8416793616 0.1387118904 0.3278996434 0.7707174622 0.1908851187 0.2038460702 0.7747346250 0.1947181441 0.2066765615 0.3426242320 0.1902188479 0.5344563426 0.3550195564 0.1906355848 0.5361996872 0.4139980522 0.2829448393 0.5664107860 0.9548997073 0.6061800063 0.3610195944 0.8663813472 0.6117987991 0.4001115888 0.8999163840 0.4790679283 0.3659212565 0.9022694342 0.4738063085 0.3628353354 0.8960217314 0.4718840127 0.3635559484 0.9027215301 0.3807540415 0.2926224265 0.8058070525 0.0773889212 0.5900195639 0.3432502699 0.9113996784 0.0686957251 0.3482556085 0.9041868893 0.0728547078 0.2973771257 0.8399037767 0.0897857669 0.2988435962 0.8343468064 0.0890977003 0.8006523376 0.6605799433 0.3595341188 0.6844022981 0.6155005554 0.3399598610 0.6751673838 0.6201201690 0.3384222589 0.1505746098 0.9040886451 0.4534406588 0.1568600287 0.9069175977 0.4543828910 0.1183437167 0.9135209116 0.2299884923 0.1206149363 0.9131855330 0.2376250914 0.2538582216 0.3185999741 0.1147662143 0.2556210009 0.3240383292 0.1154064062 0.2607370458 0.3190385062 0.1151258518 0.2621696590 0.3245767010 0.1156870990 0.2673292280 0.3190359138 0.1154431036 0.2631786153 0.3301128733 0.1161658953 0.2685371715 0.3247185054 0.1158616699 0.3468130030 0.2670676186 0.0577853014 0.2798053619 0.4118679073 0.0597691742 0.1971452103 0.4195475399 0.3309922162 0.3175367614 0.4047894807
[...]
      <PointData Scalars="overlap">
        <DataArray type="Float32" Name="overlap" format="ascii">
 0.0002255410 0.0000178342 0.0002060390 0.0000274780 0.0000869027 0.0000337642 0.0000067659 0.0000519756 0.0002481896 0.0002510042 0.0001093573 0.0000489093 0.0000732360 0.0004928330 0.0000276571 0.0002317508 0.0000931216 0.0000060089 0.0000061496 0.0001279470 0.0000224916 0.0000496222 0.0000312208 0.0000297466 0.0000237824 0.0000095580 0.0001204350 0.0000835050 0.0001927367 0.0001197979 0.0000303237 0.0000289755 0.0000076348 0.0000869516 0.0002833645 0.0000288107 0.0002007855 0.0000835501 0.0000471441 0.0000981121 0.0001040318 0.0001685276 0.0000239360 0.0000126473 0.0001839766 0.0000526593 0.0000015350 0.0000530697 0.0001664135 0.0000605520 0.0000792977 0.0002216293 0.0000634183 0.0000343527 0.0000157257 0.0000081411 0.0000547013 0.0002894982 0.0001522550 0.0000513576 0.0001178695 0.0000175263 0.0000945381 0.0000949447 0.0000256039 0.0003205127 0.0000197091 0.0000905421 0.0000903034 0.0000190168 0.0000295013 0.0000612217 0.0000073721 0.0000861671 0.0000186920 0.0000016486 0.0000080480 0.0000087704 0.0000385892 0.0001863483 0.0000089277 0.0000307405 0.0002621592 0.0001151677 0.0000366207 0.0001256148 0.0000100227 0.0000138927 0.0000037297 0.0000161248 0.0000166307 0.0000397290 0.0000071493 0.0000396775 0.0000270361 0.0001011908 0.0001229977 0.0000463400 0.0000056317 0.0000081183 0.0000276746 0.0000246797 0.0000825541 0.0000448892 0.0000528127 0.0000485676 0.0000603389 0.0000762480 0.0000621713 0.0000975145 0.0000384113 0.0000569578 0.0000136333 0.0001104945 0.0000157884 0.0000255310 0.0001252894 0.0001386056 0.0001236585 0.0000802297 0.0001386329 0.0000160550 0.0000305943 0.0000370202 0.0000328152 0.0000591075 0.0000284296 0.0000086000 0.0000406221 0.0001085549 0.0000462700 0.0000185325 0.0000024034 0.0000398907 0.0000016054 0.0000123350 0.0000049218 0.0000337154 0.0000387060 0.0000606190 0.0000184318 0.0000171475 0.0000080698 0.0000066194 0.0000122088 0.0000222357 0.0000204901 0.0000127885 0.0000107288 0.0000259192 0.0000088569 0.0001703220 0.0000143798 0.0000457653 0.0000110402 0.0000462236 0.0001711001 0.0000240614 0.0001047680 0.0002023791 0.0000361735 0.0000389284 0.0001533753 0.0000034135 0.0000395775 0.0002885171 0.0000076213 0.0000184768 0.0000144785 0.0000434202 0.0000043181 0.0000133182 0.0000081704 0.0000749097 0.0000375864 0.0000599304 0.0000613547 0.0000357531 0.0000608198 0.0000170732 0.0000350153 0.0000001215 0.0000568349 0.0000126186 0.0000173641 0.0000517530 0.0000188033 0.0000526349 0.0000299849 0.0000298741 0.0000203535 0.0000080662 0.0000288894 0.0000112557 0.0000229328 0.0000147980 0.0000044649 0.0000261146 0.0000157163 0.0000056618 0.0000675419 0.0000369405 0.0000022179 0.0000127829 0.0000078642 0.0000400885 0.0000104750 0.0000491576 0.0000640304 0.0000374273 0.0002484539 0.0000719279 0.0000079151 0.0000103504 0.0000073187 0.0000071950 0.0000115532 0.0000366572 0.0000337374 0.0000536665 0.0000649440 0.0000025551 0.0000080290 0.0000882929 0.0000310414 0.0000607380 0.0000852444 0.0000024797 0.0000074676 0.0000554069 0.0000899141 0.0000004628 0.0000286737 0.0000799063 0.0001172193 0.0003508564 0.0003216065 0.0000397281 0.0000256265 0.0001376946 0.0001623025 0.0000230735 0.0000391645 0.0000070407 0.0000153014 0.0000604674 0.0000176578 0.0000216379 0.0000119855 0.0000309817 0.0000743726 0.0000534819 0.0000057476 0.0000326411 0.0000232184 0.0000209978 0.0000334863 0.0000189436 0.0000234322 0.0000273699 0.0000620474 0.0000032321 0.0000056804 0.0000214899 0.0000013652 0.0000080032 0.0000690647 0.0002012138 0.0001006654 0.0000706782 0.0000618197 0.0000253195 0.0000536888 0.0000845737 0.0000195998 0.0000503466 0.0000230651 0.0001328997 0.0000053840 0.0000217903 0.0000399159 0.0000062033 0.0000000897 0.0000138181 0.0000075824 0.0000123747 0.0000692218 0.0000455942 0.0000089592 0.0000062020 0.0000203899 0.0000507806 0.0000419423 0.0000039320 0.0000223884 0.0000265158 0.0000097430 0.0000020067 0.0000134669 0.0000581471 0.0001164525 0.0000070262 0.0000207606 0.0000301252 0.0000081256 0.0000236418 0.0000219846 0.0000728755 0.0000742795 0.0000795269 0.0000088922 0.0000789871 0.0000033394 0.0000337367 0.0000161830 0.0000038825 0.0000087361 0.0000220211 0.0000322087 0.0000314537 0.0000289201 0.0000207932 0.0000060243 0.0000217606 0.0000137518 0.0000218352 0.0000041785 0.0000586809 0.0000081213 0.0000051338 0.0000113056 0.0000606953 0.0000876923 0.0000141268 0.0000073278 0.0000051481 0.0000503189 0.0000601831 0.0000342741 0.0000376931 0.0000593212 0.0000512693 0.0000146611 0.0000058185 0.0000107493 0.0000033134 0.0000081623 0.0000080854 0.0000097633 0.0000054663 0.0000459265 0.0000167053 0.0000077208 0.0000327979 0.0000234437 0.0000008876 0.0000055163 0.0000595529 0.0000462074 0.0000195633 0.0000226518 0.0000419131 0.0000146226 0.0000079701 0.0000069205 0.0000339288 0.0000269602 0.0000104275 0.0000221123 0.0000404374 0.0000195764 0.0000140584 0.0000139128 0.0000067206 0.0000151506 0.0000078784 0.0000101615 0.0000159084 0.0000149216 0.0000045763 0.0000051261 0.0000517084 0.0000116057 0.0000608668 0.0000298225 0.0000320049 0.0000081757 0.0000190629 0.0000047933 0.0000028191 0.0000037243 0.0000652282 0.0000062567 0.0000314294 0.0000105888 0.0000235161 0.0000129044 0.0000246444 0.0001359608
        </DataArray>
        <DataArray type="Float32" Name="contact normal" NumberOfComponents="3" format="ascii">
 0.9747515969 -0.1893335533 -0.1183728428 0.1555843245 0.9312625920 0.3294594098 -0.0006367872 0.6164526280 -0.7873917398 -0.2103093350 0.7157873909 -0.6658966847 0.1103498116 -0.0480217067 -0.9927320055 0.2338264972 -0.1107045504 -0.9659553156 0.5992148434 -0.7719994436 -0.2120340315 -0.3785340618 0.6351397830 -0.6732825708 -0.3288771921 0.6782705413 -0.6571064338 -0.1641751248 -0.9501170486 -0.2651869572 -0.8558109613 0.4668471231 0.2228034159 -0.1400044431 -0.4490998769 0.8824443645 -0.1480005367 -0.4748756649 0.8675188436 -0.1169588872 -0.3830466366 0.9162946540 -0.0083257666 0.0626891871 -0.9979983705 0.0268002801 -0.0943883311 -0.9951746520 -0.8319838004 -0.0603884107 0.5515035772 -0.4683952870 0.3948428151 -0.7903828227 -0.3784796069 -0.4904371760 -0.7849997220 0.4267011393 -0.1496474621 0.8919258797 0.4063755043 -0.1798403453 0.8958327967 -0.6620548269 -0.1481324060 -0.7346701276 0.5876489598 -0.7239458749 0.3613461916 -0.6340680721 -0.2069741793 -0.7450633322 -0.0676257379 -0.3232499088 -0.9438941975 -0.7624899492 0.1937355244 -0.6173132301 0.3125006281 -0.0294082266 0.9494622234 -0.7342287249 -0.5295657602 0.4248155895 -0.7988430429 -0.6011072595 0.0228003370 -0.0013749050 -0.9554441392 0.2951687763 0.3770183123 0.7929014692 0.4787112412 0.3335831072 -0.6196438012 -0.7104673604 0.7209765931 0.5217197702 -0.4560715225 0.7537149506 0.4852977196 -0.4431702794 0.2852248647 0.6836341252 -0.6717820773 -0.4732872054 -0.4351821378 -0.7659084333 0.2186351845 -0.1884049556 -0.9574456793 -0.6235792207 0.7261399822 -0.2896026275 -0.5201700380 0.6631003917 0.5382573753 -0.1222883826 -0.0632411118 -0.9904777197 -0.3277446322 0.7301518741 0.5995512462 -0.7229371063 0.6861793212 0.0807457710 0.4062211299 -0.7683168533 -0.4946449297 0.4402995766 -0.7260730514 -0.5281611562 0.1713980801 0.2531803171 0.9521147122 -0.4363243521 -0.6609585283 0.6105365539 -0.9456349891 -0.3248592709 -0.0155216479 0.6139345314 -0.7892961551 0.0097964624 0.5989272321 -0.8008032741 0.0005356290 0.5472301961 0.8316316162 0.0944879216 0.4998144865 0.7781872018 -0.3802764232 0.0644278068 -0.3623443895 0.9298148209 0.7572553334 -0.0105161661 0.6530342795 0.1054387606 0.2946218258 0.9497792625 -0.1808951706 0.8143185477 -0.5515090571 -0.1033713227 0.6607696501 -0.7434365065 -0.0956828529 0.2005367612 -0.9750024611 -0.2508160559 0.5934774683 0.7647717312 0.4793172814 -0.4878958424 -0.7295290198 0.2611744444 -0.8734954720 0.4108449464 -0.4050080535 0.2950852844 -0.8653861286 -0.5610518755 0.6174373229 -0.5513546457 0.6797023534 -0.6364612114 -0.3645844720 0.1152519500 -0.2602441218 -0.9586396534 0.2785586778 -0.2555561224 -0.9257948646 -0.1151241901 -0.6947457989 0.7099821799 -0.1319858454 -0.1363878757 -0.9818238559 0.1889875258 -0.3259838230 0.9262927519 0.1771334244 -0.3355281449 0.9252267905 -0.3539278634 0.6917242357 -0.6294860199 -0.5815515970 -0.3308821718 0.7431787998 -0.6850158035 -0.6446682011 0.3393468128 -0.3519548626 0.0410020801 -0.9351184974 0.2481551294 0.1400520451 -0.9585428819 0.6234504110 0.3240055650 -0.7115686748 0.9444676591 -0.0566710555 0.3236807568 0.9482873171 0.0855598494 0.3056643197 -0.4734759064 0.6020690214 -0.6429101489 -0.5584308934 0.4656561666 0.6865269636 -0.4312491346 0.6832510111 0.5892302095 0.1343172828 0.8425313754 -0.5216318137 -0.6365648773 -0.7535036094 0.1643699112 0.0926921070 -0.3335330032 0.9381705117 0.0489932882 -0.2190288382 0.9744875708 0.3163026851 0.5395902797 -0.7802531265 0.7737820485 0.4542834577 0.4414610759 0.3336794267 0.5760490387 -0.7462074412 0.2732015905 0.6214700395 -0.7342587289 0.8864827898 0.4479856802 -0.1160047139 -0.3028234452 -0.8435984748 -0.4434406097 -0.2974556034 0.9482585389 0.1110221032 -0.3437168620 0.8246742608 0.4491893615 -0.8803491692 -0.1147586552 -0.4602344960 -0.2751884783 -0.8528888958 -0.4436798765 -0.0722184158 -0.8079373818 -0.5848262029 -0.2014316886 0.9574074017 0.2068727676 -0.5934968740 0.7299747513 0.3389665515 -0.3922080463 -0.5327760862 0.7498816509 0.3396776371 0.5385611516 -0.7710842943 0.3863040309 0.5406342174 -0.7473177629 0.3396628678 0.5385602700 -0.7710914160 0.3396588929 0.5385600326 -0.7710933327 0.1126318535 -0.4601121865 0.8806877093 0.1108388944 -0.4528157065 0.8846878972 -0.0837939008 -0.9413517467 -0.3268569584 0.7067018304 -0.6148192131 -0.3500997831 0.4599456438 -0.3548499888 -0.8139603739 -0.2235169283 0.1352125311 0.9652759990 -0.2231899296 0.1348069705 0.9654083779 -0.2230503944 0.1346343092 0.9654647194 -0.2232369319 0.1348652577 0.9653893694 -0.2225856326 0.1340575985 0.9656522130 -0.2236776046 0.1354118188 0.9652108415 -0.2227786444 0.1342972508 0.9655744011 -0.2224756589 0.1339212354 0.9656964761 -0.1802186927 0.0818603450 0.9802143167 -0.2226841960 0.1341911511 0.9656109381 -0.2226689504 0.1344243049 0.9655820239 -0.2230822502 0.1350036885 0.9654057767 0.1669364539 -0.3145196009 -0.9344568695 -0.2215280823 0.1354834752 0.9656963998 0.2534591278 -0.2169918073 -0.9426945561 0.2505243493 -0.2101706315 -0.9450216167 0.4823424279 -0.3851719412 -0.7867581318 0.7374684290 0.4353395476 0.5163523937 0.4636547955 0.3371364098 -0.8193676048 0.8230724567 -0.5669964856 -0.0326606238 0.2197681983 -0.1326065359 -0.9664975145 0.2253230976 -0.1300572346 -0.9655644036 0.2248697347 -0.1264237689 -0.9661524895 0.2037480433 -0.0979224173 -0.9741139230 0.2245744476 -0.1254509799 -0.9663479545 0.1756695237 -0.7374362232 0.6521717834 0.1959016404 0.1959945201 0.9608374969 -0.0155829523 0.4234271257 -0.9057961365 -0.0707397511 0.3607662080 -0.9299696935 -0.1004615384 0.3256037636 -0.9401540663 -0.0743474545 0.1549532153 -0.9851202754 -0.3376544912 0.8585543844 0.3858416950 0.1560654938 -0.5231812743 0.8378095941 -0.3066438016 -0.9367063529 -0.1689697823 0.9259475926 0.1042928746 -0.3629656347 0.5340503245 0.5979808444 0.5976697755 -0.6750031659 -0.6277764970 -0.3876433875 -0.9195127653 0.3290710032 -0.2149617394 0.0689772753 -0.6885744886 0.7218776275 0.0714408980 -0.6715828846 0.7374772046 0.0633421674 -0.3691959541 0.9271904428 0.4348494423 0.8794936699 -0.1933826442 -0.3196962175 -0.5168106350 -0.7941669195 0.2727006369 0.5234713230 -0.8072249604 -0.0187400385 0.0079255603 0.9997929768 -0.0187499484 0.0079558306 0.9997925506 0.0753990658 -0.0381825246 0.9964221373 0.2195133013 -0.5921886212 -0.7753235115 -0.1204657939 0.3287094664 -0.9367166483 -0.1204789769 0.3287203316 -0.9367111400 0.2194847504 -0.5920006607 -0.7754751202 -0.1204906447 0.3287299474 -0.9367062646 0.1357432142 -0.0261284124 0.9903994577 0.2192743789 -0.5917345688 -0.7757376791 0.2181240115 -0.5917956067 -0.7760153836 -0.3181111420 -0.8153477033 0.4837493401 -0.2059653398 0.1751942726 0.9627487967 -0.8647701278 0.4791969939 -0.1501428223 -0.0545761834 0.3320455059 0.9416831857 -0.6879588033 0.4288632149 -0.5854818766 -0.0388092419 -0.7615421181 -0.6469524288 0.1346468405 -0.2781384487 -0.9510569024 0.6640599327 0.3246362177 -0.6735248562 -0.2386467310 -0.2963496832 0.9247835439 -0.1922858067 -0.3520504241 -0.9160167397 -0.1771470724 -0.3510764137 -0.9194369291 -0.1801506041 -0.3565842776 -0.9167297381 -0.8774184569 0.4309580458 0.2107415814 -0.5001002215 0.4190553734 -0.7578207984 0.5889321886 -0.5446868353 -0.5970553816 0.2172995792 -0.1597917967 -0.9629369006 0.9732646873 0.2296825692 0.0013288659 -0.6192968868 0.5275814223 -0.5814887865 0.9097895976 -0.4077875374 0.0774093817 0.6530750148 0.0527482778 -0.7554539326 0.1091830053 0.9771570663 0.1823270115 -0.6847311982 -0.2364317553 0.6893788591 -0.6894311930 -0.2314012158 0.6863950083 -0.6822147694 -0.2397573950 0.6907238232 -0.6643663752 -0.2351447313 0.7094535043 0.4877547815 -0.4803211093 -0.7289628970 0.7528403059 -0.6492577715 -0.1081472141 0.0332259132 0.4262019097 0.9040176828 -0.6547246048 0.4061791810 0.6374591475 -0.0724633282 -0.4846432849 -0.8717051982 -0.5033488096 -0.6987201348 0.5083602552 0.3390268824 0.2884414520 -0.8954676442 -0.2373911470 0.0128363813 -0.9713293317 -0.2615782892 -0.0587855772 -0.9633903957 0.7522990423 0.2694383001 0.6012064149 0.1439886379 -0.6094781099 0.7796176664 -0.4401020814 0.8365817266 0.3262532339 0.2696939914 0.7976563900 0.5394529029 0.2716255936 0.8386193417 0.4721621932 0.2090937079 0.6355606979 -0.7431974304 -0.3845976139 0.7536578057 -0.5329958605 -0.2919931572 0.6684288687 0.6840634793 -0.2519073698 0.6666682244 0.7014956561 -0.1773006641 0.9573714735 0.2280445925 0.3002261160 0.5922498734 -0.7477328177 0.2806546212 0.5827419543 -0.7626564091 -0.2984603764 0.4463285528 -0.8436303851 -0.3000622023 0.4872073743 -0.8201168509 -0.1923607909 -0.5414410531 0.8184368712 -0.1957641874 -0.5312694463 0.8242749289 -0.4402897872 0.6284601582 -0.6412353178 0.0843769537 0.9896493930 0.1160801815 -0.6559135540 -0.6631192598 0.3606248147 -0.6477679490 -0.7391172221 -0.1846683954 0.6216121545 -0.6940391153 -0.3631914587 -0.4377380447 0.6553804191 -0.6155175957 -0.1216906745 0.3523747478 -0.9279134749 -0.2329849734 0.2568434787 -0.9379495880 -0.4786334608 0.7628183849 -0.4347621440 -0.1737084012 0.6566895770 0.7338829544 -0.7734357166 -0.6004107223 -0.2032342411 -0.7640894733 -0.6230758486 -0.1671638827 0.2986768202 0.2188527951 -0.9289217465 0.2974141347 0.2166299110 -0.9298474682 -0.2439433819 0.3579148994 -0.9013259961 0.3978260805 0.4542065553 -0.7971391440 0.3423600310 0.4963642140 -0.7977544586 -0.3679669726 0.7958169291 0.4809113458 -0.3649485425 0.8040959215 0.4692998086 -0.8854913331 0.3731743994 0.2768500798 -0.8869868618 0.3678076038 0.2792344422 0.0322160365 0.0956167515 -0.9948967604 0.0299161027 0.0983184083 -0.9947052415 0.0682053422 0.0531571131 -0.9962541607 0.0336826173 0.0939322861 -0.9950086467 0.0706358676 0.0502660131 -0.9962348629 0.0315122312 0.0964896425 -0.9948350256 0.0697442994 0.0513293347 -0.9962434603 -0.9735239022 0.2173002804 0.0709351814 -0.4238571014 -0.7489776860 -0.5092912559 0.4890264190 -0.6031976265 0.6300839506 0.0011471990 0.0684639888 -0.9976529287 0.1759386549 -0.2961251378 -0.9388053539 0.5084278856 -0.3526498907 -0.7855820388 0.1803324149 -0.9835929022 -0.0050222365 0.9711437058 -0.0971646797 -0.2178047927 -0.2651270759 -0.9614076074 0.0735054151 -0.2908758313 -0.5680886576 0.7698483798 0.6003667219 -0.1235891943 -0.7901174029 0.4877604060 0.4212403589 0.7646217015 -0.0679772674 -0.9155846621 -0.3963380093 -0.1218139020 0.3804313442 -0.9167515288 0.3198481748 -0.2090820244 0.9241113851 -0.6040722989 -0.0347769652 -0.7961703463 -0.2391578476 -0.6359418099 0.7337448728 -0.2315472955 -0.6370177527 0.7352511358 0.8045572465 -0.5925269677 0.0399928690 0.5654997508 -0.0072948802 0.8247162036 0.0996575574 0.7561042249 0.6468189642 -0.1534920475 0.6421926645 -0.7510184905 0.7465774895 0.1815171701 -0.6400574733 0.1414907893 -0.5278211689 -0.8374874150 -0.6001474445 -0.5560422182 -0.5750131272 -0.2655349469 0.5367655205 -0.8008582696 -0.8479776861 -0.3158372341 -0.4256532455 -0.7710755183 -0.1248584963 -0.6243820152 0.3590317161 0.2544323570 -0.8979757249 0.3518006269 0.2536788471 -0.9010457044 0.3589467098 0.2544574806 -0.8980025891 0.4646797047 -0.0593570795 0.8834871302 -0.0936868405 -0.1858441139 -0.9781026231 -0.0848668850 -0.1981240032 -0.9764960272 -0.1138786995 -0.6161835802 -0.7793262714 0.0886103477 0.1653444645 0.9822471249 0.7157313266 -0.2994160413 -0.6309347845 0.8781747863 0.0218687683 0.4778397239 0.4082162621 0.9091211941 -0.0828138747 0.9197829056 -0.1472325039 -0.3637609055 0.4277870752 0.5480320591 -0.7187900114 0.4394525050 0.5374469401 -0.7197445953 0.4455987364 0.4935960515 -0.7468632432 -0.0485451358 -0.6506538406 0.7578211857 -0.0481433997 -0.6506585826 0.7578427422 -0.0497858881 -0.6508240399 0.7575945053 -0.0495879678 -0.6508275609 0.7576044611 -0.0496801600 -0.6508524492 0.7575770397 0.3639439736 -0.0156560254 -0.9312892531 0.9432762757 0.2503099055 -0.2181165262 -0.4285994598 0.5268562001 0.7339789148 -0.4289904882 0.5264305560 0.7340558771 -0.4345537681 0.5250272535 0.7317850817 -0.7262421110 0.3025437353 0.6172841197 -0.0362885101 0.2405648602 -0.9699544794 0.0041035081 0.2892649847 -0.9572402676 0.0163256671 0.3096328771 -0.9507160218 0.2013610823 0.3973584045 -0.8952988400 0.1077986477 0.8494515558 -0.5165380004 -0.3693051831 -0.1432355030 -0.9182032849 -0.2700038970 0.0784262331 -0.9596599510 -0.3530755355 -0.2886698892 0.8899479543 -0.3215961213 -0.9253131065 -0.2009268265 0.2932620628 -0.5837417721 -0.7571280644 -0.0298815115 -0.6451832883 -0.7634432655 0.2668561818 0.3719796494 -0.8890550707 0.3191349517 0.1144271021 -0.9407759143 -0.3964557852 0.0135123551 -0.9179543707 -0.3972051961 0.0123044612 -0.9176473355 -0.3732503543 0.0502341435 -0.9263696367 -0.3734679278 0.0499426831 -0.9262977034 0.1842854384 -0.3894548265 0.9024210853 -0.2694261383 0.0358339716 -0.9623541357 -0.2120445399 0.0192422884 -0.9770705437 -0.0860825138 -0.1622099045 0.9829942765 0.6306934850 -0.6959514907 -0.3433325657 0.6344214292 -0.6932960928 -0.3418332604 -0.2452328800 0.8945740019 -0.3736284112 -0.4035559140 0.9127950739 0.0628313405 -0.5502963997 -0.7400386431 0.3866738667 0.1735282729 0.3615586643 -0.9160585520 0.1744358264 0.3463848438 -0.9217318929 0.3688192926 -0.7351852416 -0.5687486175 -0.4895823635 -0.5444931338 -0.6810553110 0.0874897540 0.4826693044 0.8714217610 0.0729892713 0.4577520596 0.8860787878 0.2545324927 0.7719064564 -0.5825578364 0.2177504546 0.8018679097 -0.5564104554 -0.1614472753 -0.9838673852 0.0770697453 -0.0928224397 0.9011139478 0.4235299844 -0.4452126752 -0.8639978021 -0.2351456396 0.7007713140 -0.1018198359 0.7060823511 0.7780967744 -0.0149433447 0.6279666441 -0.1273223056 -0.6337149975 0.7630166004 -0.1228099169 -0.6298715307 0.7669286663 -0.1272909536 -0.6337399558 0.7630011019 -0.1227796063 -0.6299708171 0.7668519661 -0.1228365314 -0.6300186421 0.7668035584 -0.0929355783 -0.6040493686 0.7915095316 -0.1219342718 -0.6310512582 0.7660981288 -0.0934776522 -0.6037157381 0.7917002186 -0.0933561518 -0.6036202003 0.7917873974 -0.0310440972 0.6016902184 0.7981260208 0.5127311105 0.8092232040 -0.2868180858 0.9208296005 0.2509992668 0.2984496858 -0.0788771507 0.2648994129 -0.9610445859 -0.0744432867 0.2681631174 -0.9604929669 -0.0701196878 0.2712723686 -0.9599450669 0.3274790316 0.4936169407 -0.8056673009 0.6858457345 0.7189903087 0.1125547174 -0.1523921743 -0.6449754747 0.7488546336 -0.1524403107 -0.6449534521 0.7488638036 -0.1524537734 -0.6449511088 0.7488630811 -0.1524056712 -0.6449566266 0.7488681200 -0.1524363063 -0.6449531204 0.7488649044 -0.1524562761 -0.6449507989 0.7488628385 -0.1524530251 -0.6449511733 0.7488631778 -0.1523865143 -0.6449588325 0.7488701186 -0.1524015463 -0.6449571016 0.7488685504 0.0626616287 0.755243625