<?xml version="1.0"?>
<VTKFile type="UnstructuredGrid" version="0.1" byte_order="LittleEndian">
  <UnstructuredGrid>
    <FieldData>
      <DataArray type="Float32" Name="TIME"  NumberOfTuples="1" format="ascii"> 0.9500000000 </DataArray>
      <DataArray type="Int32"   Name="STEP"  NumberOfTuples="1" format="ascii"> 95000 </DataArray>
    </FieldData>
    <Piece NumberOfPoints="165" NumberOfCells="165">
      <Points>
        <DataArray type="Float32" NumberOfComponents="3" format="ascii">
 0.4279996732 0.2009518239 0.0980836537 0.4260195414 0.2047946618 0.0756225137 0.4858658744 0.1500769158 0.1871102107 0.5400317230 0.3640031814 0.2027409196 0.5462640776 0.3753345080 0.2027042403 0.5592855320 0.3689306834 0.2061146208 0.7530514447 0.1776374055 0.1474433484 0.7593722723 0.1844624685 0.1519015838 0.6786978629 0.4542675852 0.1680430979 0.8421816002 0.2149883320 0.1090701098 0.7829374756 0.3711709809 0.0369900246 0.7966528507 0.3681455462 0.0373861070 0.8181089448 0.3836488783 0.0431575427 0.8179833366 0.3877716162 0.2262168438 0.7183184119 0.3424343233 0.6770126546 0.7425327560 0.3449733493 0.6694159495 0.2433665907 0.7994913882 0.0414188293 0.2556733359 0.8169152884 0.0915297704 0.0751498769 0.9086432985 0.1099786659 0.1549793227 0.7218738165 0.0812525992 0.1596956065 0.7176226283 0.0857946397 0.0372753222 0.8782229561 0.1738910330 0.0560851069 0.8041323716 0.1552499725 0.1722542006 0.7191619212 0.1452049474 0.1917826126 0.8173480868 0.1967508477 0.5723879052 0.7548285892 0.2487510202 0.5690052750 0.7658948249 0.2470218683 0.6805910525 0.7524708278 0.2608238381 0.6482974794 0.7378849209 0.1604177244 0.7045798775 0.8056022960 0.2809846231 0.6539369176 0.7413030401 0.1606188730 0.5215413468 0.7560839230 0.1002646512 0.5178593139 0.7669499859 0.0979208920 0.7274726124 0.8641211961 0.2257070654 0.5577299975 0.8518456155 0.1589802866 0.5587687853 0.8528013725 0.1513330845 0.5646842813 0.8567680035 0.1572519215 0.5664619104 0.8580205910 0.1497603147 0.1364531604 0.6595675891 0.2429469543 0.0834974820 0.6878631199 0.2634183781 0.1602579907 0.6606472507 0.2411002242 0.1217525304 0.7123507708 0.4379451773 0.1381344453 0.7293779419 0.4362052936 0.3084142141 0.4582945656 0.2791835867 0.2470398194 0.7946174002 0.2637965659 0.4425629245 0.9112218691 0.2770335913 0.4550813535 0.8576610172 0.4581563841 0.6477076794 0.1141837815 0.2561911433 0.6394748873 0.1236375968 0.2561890144 0.6360509459 0.9006699689 0.3954566401 0.6396896469 0.9064255568 0.3869792300 0.7657671177 0.3918044996 0.3548582856 0.5746983644 0.3198671180 0.3196375679 0.1203892273 0.2903681650 0.0828395509 0.0962174340 0.4130714209 0.1045646474 0.2090728534 0.4373035436 0.0539203196 0.1977092893 0.4331467621 0.0577836762 0.1233820943 0.4442675057 0.1205784230 0.1122250911 0.4721298517 0.1349413698 0.1038662983 0.4827351461 0.1382998180 0.1052340604 0.4911576881 0.1450461259 0.0979116488 0.4996523674 0.1474566401 0.0930072077 0.5142989747 0.1554986849 0.1208159670 0.6080013580 0.0765118679 0.1088657966 0.6074272033 0.0777808047 0.1254459912 0.6129639872 0.0782146009 0.1140727018 0.6126819300 0.0793110059 0.2297783393 0.2961016824 0.2208722948 0.2429169474 0.3019654771 0.2231128190 0.2535403698 0.3163152166 0.2233692630 0.2374201798 0.2935709149 0.2231151858 0.2493990179 0.3024470182 0.2245566907 0.2302434468 0.2878456481 0.2223155280 0.2598851819 0.3212557337 0.2241201988 0.2207073164 0.2843944235 0.2206075267 0.2555192495 0.3047316876 0.2256397461 0.2664491559 0.3292536393 0.2244027176 0.2615531481 0.3089578791 0.2264042308 0.2187480847 0.2786109606 0.2210476917 0.2678043224 0.3155352772 0.2268624000 0.2746702921 0.3252783459 0.2269950871 0.2827608981 0.3396978970 0.2267302229 0.2822309791 0.3234129615 0.2290433442 0.0603358062 0.1682638619 0.2275185793 0.1161242448 0.0668120531 0.3044703313 0.6184892735 0.5449104328 0.0838521141 0.6245606435 0.5600085699 0.0838575834 0.7486203082 0.6596941850 0.2559903730 0.7551355244 0.7518370036 0.1126385129 0.7805068706 0.6638717307 0.2613926805 0.8074169619 0.7654270858 0.1680120670 0.8770461277 0.6241195277 0.0946501017 0.9197576292 0.5607938821 0.1922690703 0.8956326799 0.6358706877 0.0943748267 0.3653676222 0.5791268766 0.0859616629 0.4535478224 0.6602533355 0.0969866018 0.4571037254 0.6558449766 0.0983611230 0.4617365561 0.6575502305 0.0961304194 0.3427451496 0.1055303433 0.4820486445 0.2505387371 0.1454963311 0.0767239782 0.3284558280 0.0762830295 0.1259931001 0.3560094955 0.1664423212 0.0923743944 0.3588892516 0.1641480231 0.0943517398 0.3579617787 0.1696369778 0.0952690166 0.3609144895 0.1673497568 0.0973163007 0.3639579483 0.1651430920 0.0994801154 0.3632208269 0.1706957048 0.1005679604 0.3310763477 0.2031049235 0.1575849887 0.3390447365 0.2084842513 0.1619238699 0.7327500503 0.1000516753 0.3108171076 0.7641414975 0.2002104780 0.2085848510 0.3435022012 0.9110113171 0.0698278278 0.3484907230 0.9037899965 0.0739938195 0.2555991315 0.3214631621 0.1152266660 0.2606650248 0.3164179542 0.1149365192 0.2621513579 0.3219385429 0.1154975864 0.2632129501 0.3274683224 0.1159764574 0.2685221132 0.3220223428 0.1156685635 0.2694104990 0.3276864721 0.1160588885 0.3465546461 0.2643697978 0.0572010980 0.2783582038 0.4071270223 0.0673395890 0.2808133733 0.4097492069 0.0607485631 0.5347640998 0.0959415656 0.4284920940 0.4216033332 0.9071375263 0.0804453981 0.4208327644 0.9137335042 0.0798730501 0.3555367322 0.9047069103 0.1282334182 0.3539246018 0.9135638943 0.1300102631 0.5401532024 0.8212181326 0.0374536294 0.5463764790 0.8160258711 0.0376719329 0.5426194886 0.9029124095 0.0178882981 0.9750652712 0.8519138548 0.2397633351 0.9737914817 0.8655268639 0.2403724259 0.8706396090 0.0871473376 0.2357417041 0.8670615520 0.0838757595 0.2309468127 0.2937873380 0.8852165062 0.1426179676 0.3964239795 0.9316684533 0.1846424621 0.4112604191 0.9313981234 0.1826935234 0.0943924662 0.1062845382 0.0909093746 0.0880072796 0.1098815940 0.0878665717 0.1062902765 0.2130745300 0.0761805937 0.2009858563 0.1324321071 0.0794515711 0.8254023457 0.7629886530 0.0368626702 0.8157869126 0.9062204690 0.1003828956 0.7823237611 0.9121052753 0.2706949553 0.8022794820 0.8364685724 0.3769081633 0.8885019371 0.8390129712 0.2047217309 0.8878865635 0.8540514250 0.2047201086 0.8090390648 0.9016207546 0.1748236645 0.8098865339 0.9067200256 0.1785498910 0.8037466111 0.9064758685 0.1777025112 0.4795276761 0.2962129822 0.6241282681 0.9052751498 0.0925779504 0.0770146344 0.9102876585 0.0964017962 0.0812547238 0.9061360491 0.1040760224 0.0871410609 0.9071058690 0.1206560722 0.1017516344 0.9114294740 0.1231608013 0.1047554063 0.5419258070 0.0861868329 0.3822962149 0.1987683232 0.6221747461 0.0521814590 0.3699344877 0.5144935119 0.0690121180 0.4075717998 0.7169546739 0.1256427639 0.4102750882 0.7131916909 0.1264067695 0.0775147302 0.3990213606 0.2728488930 0.0689204858 0.4050310025 0.2694600631 0.9607976717 0.4518251085 0.1424813075 0.4813292472 0.9163487609 0.1899008058
        </DataArray>
      </Points>
      <Cells>
        <DataArray type="Int32" Name="connectivity" format="ascii">
 0 1 2 3 4 5 6 7 8 9 10 11 12 13 14 15 16 17 18 19 20 21 22 23 24 25 26 27 28 29 30 31 32 33 34 35 36 37 38 39 40 41 42 43 44 45 46 47 48 49 50 51 52 53 54 55 56 57 58 59 60 61 62 63 64 65 66 67 68 69 70 71 72 73 74 75 76 77 78 79 80 81 82 83 84 85 86 87 88 89 90 91 92 93 94 95 96 97 98 99 100 101 102 103 104 105 106 107 108 109 110 111 112 113 114 115 116 117 118 119 120 121 122 123 124 125 126 127 128 129 130 131 132 133 134 135 136 137 138 139 140 141 142 143 144 145 146 147 148 149 150 151 152 153 154 155 156 157 158 159 160 161 162 163 164
        </DataArray>
        <DataArray type="Int32" Name="offsets" format="ascii">
 1 2 3 4 5 6 7 8 9 10 11 12 13 14 15 16 17 18 19 20 21 22 23 24 25 26 27 28 29 30 31 32 33 34 35 36 37 38 39 40 41 42 43 44 45 46 47 48 49 50 51 52 53 54 55 56 57 58 59 60 61 62 63 64 65 66 67 68 69 70 71 72 73 74 75 76 77 78 79 80 81 82 83 84 85 86 87 88 89 90 91 92 93 94 95 96 97 98 99 100 101 102 103 104 105 106 107 108 109 110 111 112 113 114 115 116 117 118 119 120 121 122 123 124 125 126 127 128 129 130 131 132 133 134 135 136 137 138 139 140 141 142 143 144 145 146 147 148 149 150 151 152 153 154 155 156 157 158 159 160 161 162 163 164 165
        </DataArray>
        <DataArray type="UInt8" Name="types" format="ascii">
 1 1 1 1 1 1 1 1 1 1 1 1 1 1 1 1 1 1 1 1 1 1 1 1 1 1 1 1 1 1 1 1 1 1 1 1 1 1 1 1 1 1 1 1 1 1 1 1 1 1 1 1 1 1 1 1 1 1 1 1 1 1 1 1 1 1 1 1 1 1 1 1 1 1 1 1 1 1 1 1 1 1 1 1 1 1 1 1 1 1 1 1 1 1 1 1 1 1 1 1 1 1 1 1 1 1 1 1 1 1 1 1 1 1 1 1 1 1 1 1 1 1 1 1 1 1 1 1 1 1 1 1 1 1 1 1 1 1 1 1 1 1 1 1 1 1 1 1 1 1 1 1 1 1 1 1 1 1 1 1 1 1 1 1 1
        </DataArray>
      </Cells>
      <PointData Scalars="overlap">
        <DataArray type="Float32" Name="overlap" format="ascii">
 0.0000255751 0.0000869684 0.0000835224 0.0000277384 0.0000075555 0.0000133092 0.0000942173 0.0000637840 0.0001163165 0.0000200881 0.0002136828 0.0000442907 0.0004312537 0.0001479606 0.0004381323 0.0001176737 0.0000540390 0.0001110774 0.0000185045 0.0000105542 0.0000961162 0.0000349236 0.0000224831 0.0000771214 0.0000491095 0.0001071098 0.0002672034 0.0000350892 0.0000373369 0.0000254489 0.0001367558 0.0000736297 0.0001709188 0.0000105522 0.0000689048 0.0000636173 0.0000131030 0.0000203109 0.0001188633 0.0000363714 0.0002363072 0.0002364788 0.0000168185 0.0002666022 0.0000069576 0.0000724855 0.0002081305 0.0000244085 0.0001141511 0.0001699746 0.0002620827 0.0004005457 0.0001168991 0.0000510297 0.0000205109 0.0000101499 0.0000630244 0.0000051054 0.0000303657 0.0000189932 0.0000147759 0.0000456198 0.0000269473 0.0001252557 0.0000120381 0.0000912992 0.0001910937 0.0000454019 0.0001328454 0.0000982218 0.0000601971 0.0000754044 0.0000420425 0.0001240577 0.0000896588 0.0000422809 0.0000089870 0.0000428903 0.0000066449 0.0000766090 0.0001237890 0.0000748231 0.0000071641 0.0001165645 0.0001159799 0.0000841074 0.0000133973 0.0001125032 0.0002974976 0.0002302750 0.0000106347 0.0001824256 0.0000292607 0.0000257842 0.0000210214 0.0000618151 0.0000273575 0.0000092529 0.0001878843 0.0000408112 0.0000818813 0.0000298341 0.0000154661 0.0000049776 0.0000598757 0.0000037209 0.0000228429 0.0000416642 0.0000256046 0.0001438236 0.0000508062 0.0000347146 0.0000302075 0.0000314141 0.0001974720 0.0003202540 0.0001734724 0.0001978577 0.0000880710 0.0000385392 0.0000920721 0.0000627773 0.0000452680 0.0000175359 0.0001681508 0.0001079640 0.0001037943 0.0001440748 0.0000640152 0.0000695698 0.0001494341 0.0000309378 0.0000542796 0.0000683833 0.0000653843 0.0000779001 0.0000017494 0.0000362312 0.0000583194 0.0000718991 0.0000742872 0.0000528835 0.0000194211 0.0000541430 0.0001183629 0.0000220438 0.0000760909 0.0000193478 0.0000293128 0.0000016880 0.0006974185 0.0000042947 0.0000236935 0.0000503217 0.0000212326 0.0000073853 0.0000110523 0.0000249327 0.0000062486 0.0000412356 0.0000145179 0.0000766409 0.0000722056 0.0000896321 0.0000373054
        </DataArray>
        <DataArray type="Float32" Name="contact normal" NumberOfComponents="3" format="ascii">
 0.9748089930 -0.2155063074 -0.0574844201 0.9753806495 -0.1759099670 -0.1329972634 -0.0100123668 0.3959691617 -0.9182092221 0.0748914812 -0.0931151905 -0.9928347432 0.0327985368 0.1225288619 -0.9919228468 0.2185050215 -0.0480746213 -0.9746509049 -0.3573628877 0.6494859539 -0.6711629923 -0.3124743931 0.6892631568 -0.6536635635 -0.1518254878 -0.9499301637 -0.2730965128 -0.9348919118 0.3305765745 0.1292139378 -0.1310719435 -0.4515778692 0.8825517399 -0.1389096360 -0.4781528533 0.8672219796 -0.1097326028 -0.3876717681 0.9152427853 0.0273204886 -0.0896525139 -0.9955983214 -0.3078550180 0.0673369778 -0.9490474273 -0.2733711958 0.0076230639 -0.9618784113 -0.7376284312 -0.5296975340 0.4187180674 -0.8002280310 -0.5996081084 0.0102574224 0.0008932542 -0.9479337203 0.3184664254 0.3806586610 0.8182004882 0.4308676651 0.4306320231 0.8283306910 0.3583634007 0.3702660878 -0.4938612125 -0.7867681532 0.7293602047 0.5296397788 -0.4330304798 0.2970027662 0.6851437020 -0.6651071075 -0.5029193968 -0.4548538574 -0.7349694202 0.2490299620 -0.1842471820 -0.9508086316 0.6219562372 0.0959224220 -0.7771546358 -0.5695949488 0.7492542715 -0.3379047662 -0.5305683850 0.6603542005 0.5314409833 -0.0601234904 -0.1089191245 -0.9922307142 -0.3371296557 0.7315187268 0.5926415000 0.2431120870 0.1745563943 0.9541627630 0.1955397522 0.2372627486 0.9515621858 -0.6006171313 -0.6465707468 0.4703247080 0.5442253058 -0.8384654409 -0.0281872476 0.5292930499 -0.8476168762 -0.0373429863 0.6107952738 -0.7916560385 0.0144862116 0.6010613951 -0.7991623887 0.0080421209 0.0558347665 -0.3593830981 0.9315182594 0.7394205918 -0.0051495910 0.6732240861 0.0948137845 0.2917551262 0.9517821666 0.2282244922 -0.2846321813 -0.9310736289 0.3600420357 -0.2723257995 -0.8923051000 -0.2634671619 0.6045076501 0.7517682858 -0.0261825963 -0.2334442067 0.9720176305 -0.1438770739 -0.6836022461 0.7155329180 0.2618056494 -0.1758518881 -0.9489646544 -0.6725088562 -0.6207606395 0.4029740275 -0.6967363225 -0.4626588187 0.5481836502 0.8628230002 0.1310236338 0.4882307627 0.8641387877 0.2049790121 0.4596169711 0.0251485098 -0.2968761249 0.9545847887 0.4099552583 -0.6969605122 0.5883729520 -0.3528361816 0.8311328564 0.4297962355 -0.0678755240 -0.8006148899 -0.5953223592 -0.1938770868 0.9565529233 0.2177571587 -0.5880954623 0.7311163338 0.3458505944 0.3763156609 0.5391889744 -0.7534333237 0.3762564135 0.5392071995 -0.7534498705 0.3761472220 0.5392042374 -0.7535065081 0.3762350608 0.5392066211 -0.7534609471 0.3292338650 0.5372062526 -0.7765400854 0.3292279745 0.5372059127 -0.7765428180 0.1282779847 -0.4730684917 0.8716369433 0.1268978009 -0.4679971111 0.8745716964 0.1263801456 -0.4660950097 0.8756617502 0.1096962589 -0.4047863255 0.9078076677 -0.2636877347 0.1916140819 0.9453850127 -0.2221270271 0.1416146356 0.9646786402 -0.2635644278 0.1914883566 0.9454448697 -0.2217946783 0.1412171036 0.9648133759 -0.2216526219 0.1410475644 0.9648708203 -0.2218425936 0.1412744094 0.9647939702 -0.2634307329 0.1913257977 0.9455150385 -0.2222907484 0.1418104744 0.9646121565 -0.2213762457 0.1407169580 0.9649825364 -0.2638510248 0.1923636507 0.9451872104 -0.2212803923 0.1406127853 0.9650197058 -0.2219135555 0.1413592869 0.9647652180 -0.2213864234 0.1407405037 0.9649767677 -0.2216919721 0.1414101327 0.9648087084 -0.2213390034 0.1471316667 0.9640338782 -0.2201764807 0.1418635413 0.9650891425 0.6371573733 0.4947019474 0.5910164676 0.4737178677 0.2966343717 -0.8292161548 -0.0139902607 0.0073990262 0.9998747557 -0.0140020437 0.0074301232 0.9998743601 0.2076988519 -0.6265398470 -0.7512050366 0.0907565910 -0.0263358478 0.9955248185 0.2036264075 -0.6289249669 -0.7503263771 -0.1818058108 -0.8324034847 -0.5234988881 -0.1883706140 0.1726869023 0.9667966413 -0.8831272058 0.4348869909 -0.1759535265 -0.0410688134 0.3313069998 0.9426287840 0.6714261917 0.3295628243 -0.6637584003 -0.1975909841 -0.3525404402 -0.9146983333 -0.1998416703 -0.3605663961 -0.9110736418 -0.1666315449 -0.3390721761 -0.9258855154 -0.7400583556 0.3579774630 -0.5693555710 0.8476370484 -0.5285133243 0.0467450543 0.1707354399 0.9777352696 0.1219965249 -0.6962162391 -0.2164664574 0.6844159709 -0.6869486220 -0.2410210464 0.6855730785 -0.6928378172 -0.2019728331 0.6922302607 -0.6775824418 -0.2197482022 0.7018495295 -0.6689346785 -0.2285645051 0.7073080396 -0.6728048955 -0.2244680145 0.7049451631 0.4908327179 -0.4779892184 -0.7284295094 0.7602693489 -0.6424078316 -0.0964504797 0.2621130660 0.5488768575 -0.7937448809 -0.3105527463 -0.3130322393 0.8975342940 -0.7787630425 -0.5977554249 -0.1903065308 -0.7687138381 -0.6206740571 -0.1544109775 0.0248348322 0.0886197849 -0.9957558761 0.0638361378 0.0440075561 -0.9969896100 0.0287943685 0.0841441339 -0.9960374737 0.0267122830 0.0865247612 -0.9958915200 0.0655205912 0.0420682477 -0.9969640488 0.0325079436 0.0806747033 -0.9962102318 -0.9755737041 0.2021994445 0.0858564650 -0.4117734368 -0.7831174486 -0.4660146978 -0.4010938555 -0.7592116677 -0.5125635207 -0.3068970391 -0.6020471354 0.7371251279 -0.8320680155 -0.3211803609 -0.4522233888 -0.7508346564 -0.1279738800 -0.6479737686 0.3619420966 0.2461173973 -0.8991240990 0.3619558632 0.2461501905 -0.8991095800 -0.1092699280 -0.1812031999 -0.9773563747 -0.0998777332 -0.1888016660 -0.9769229086 -0.0768176670 -0.6080933202 -0.7901402154 0.8993081606 0.0195226506 0.4368795010 0.8791576088 0.0764435084 0.4703597441 0.4407807850 0.5529986141 -0.7070394843 0.4428056419 0.4921116456 -0.7494993608 -0.0089914152 0.2996463736 -0.9540079692 -0.3578136911 -0.1473652974 -0.9220915527 -0.2524187228 0.0721572100 -0.9649238962 0.2961254367 -0.5850228064 -0.7550218816 -0.0285474655 -0.6456377130 -0.7631100744 0.2800259431 0.3546616585 -0.8920765545 0.2851138129 0.0599917722 -0.9566143951 -0.7200694362 0.6875296397 0.0938243125 -0.3545143926 0.0281802606 -0.9346258173 -0.0967901566 0.1833415796 0.9782727282 -0.2500864767 0.2125649250 -0.9446019833 0.5409499064 -0.1984961385 0.8172958349 0.7994143556 0.0910157883 0.5938457833 -0.1005390003 -0.5857745021 0.8042139902 -0.0964140983 -0.5831639104 0.8066127790 -0.1006884270 -0.5861607215 0.8039138320 0.0187948743 -0.7864836826 0.6173250115 -0.1526224159 -0.6480320153 0.7461641276 -0.1006807651 -0.6538623985 0.7498848894 -0.1525958077 -0.6477917332 0.7463781816 -0.1525951510 -0.6477910103 0.7463789432 -0.1006886633 -0.6538443831 0.7498995371 0.4570115309 -0.4696443540 0.7553639132 0.9085685123 -0.3918540955 -0.1447536746 -0.5269082226 0.5997458537 -0.6022230782 -0.3921072522 -0.0488934310 0.9186192547 -0.3984764260 -0.1165210695 0.9097468759 -0.6025213817 -0.7107842171 0.3629790369 -0.6501606457 -0.6572956700 0.3811214203 0.4562466857 -0.8897797386 0.0114445828 -0.3781463469 -0.2480073658 0.8919067703
        </DataArray>
        <DataArray type="Float32" Name="contact force" NumberOfComponents="3" format="ascii">
 15.6781273337 -2.3931951826 7.8952775234 55.1443255892 9.3744198113 -0.3260524651 -6.9205237496 3.2828783369 -53.0862047575 -3.7109519871 6.5957153571 -17.6616913074 -1.1497866652 2.8138189735 -4.2606414757 -0.5919368197 3.5220275592 -8.4996437730 8.5219253328 36.5495390652 -53.3959317709 7.9285267387 26.2922007961 -34.6135399244 13.7082010988 -61.0723747521 -50.7390926993 -9.2212548523 10.4208818235 -0.1000034373 -4.6594477649 -8.4867377567 140.2371115602 5.8596026731 -2.9291090969 29.9667337287 -1.2991532658 0.6365632176 282.8281459873 5.4428079395 -58.8351869828 -83.7214753529 2.0461937906 143.3935685520 -267.4825317473 14.3331273324 21.5178966618 -77.3054629426 -23.8750359643 -7.9163738680 25.3612180133 -52.0053944892 -42.1781071720 -25.3568070990 3.6123879786 -8.8345238064 8.5563776365 5.6197800887 4.5448919940 1.1016769789 49.6695848994 29.7619583757 32.4465730018 -0.2143103179 -4.8627479480 -23.6816975242 12.3990053298 2.1566036230 -7.6306494569 0.6777378367 32.8687613482 -35.4104691164 -11.0825354199 -0.5646863774 -32.1581136058 -18.0686439973 -2.0031809031 -71.9350427536 28.8711426799 3.1127766951 -182.8038312845 -13.1069128322 12.3685415918 -12.7868243727 -15.2852677054 17.3986170483 5.2743072675 -2.2374743716 3.5695926273 -15.6451748866 -34.6340656316 45.8355271808 62.1754696374 1.1832338726 10.6373553173 44.0525915837 -6.8523927781 15.8793787119 105.2202183895 -1.2778019680 -4.5471173082 5.5787141756 31.2731583311 -29.1698487099 4.7773981312 27.4122938214 -28.1012334007 4.2265722061 6.2664968514 -5.0184929766 4.2345588818 9.0606645799 -8.3663062206 6.7723074145 16.9082623993 -46.9054107183 57.4512774664 24.3183558355 -3.3376377785 5.6803513760 32.9551287647 18.5552538935 139.9964374886 27.8088828717 -38.5845888461 -133.7790899024 3.2698704762 -2.6533346088 -9.1798818064 7.6710651450 62.2514260748 165.4112745899 1.8535742389 -0.1276597044 4.3139828154 8.6249088798 -18.9786854686 44.3841989838 -20.4742028880 -29.9598242368 -131.6909949721 -8.3783601757 -6.1202246304 12.9323189347 -37.9459507942 -20.1494400803 59.7063548593 84.4696304525 -33.9058866193 68.7070387447 141.7131325170 -49.9176534160 97.9552444532 -29.1868241392 31.9227568552 262.4581115711 17.0369782360 -34.9601161278 65.9262798648 -16.0210286512 21.9220815948 15.6931877942 3.2200925772 -9.8826835554 -7.7484951027 1.0185966735 5.6518638451 4.0463150642 -10.4986053867 28.4043445002 31.4401659690 0.8152275893 0.3249678248 -3.4259752365 7.9226865351 9.6423824195 -13.3243132720 4.3378478377 5.2087583655 -9.2310636218 2.9858554582 3.2359225403 -7.9596860760 2.0129439617 15.4592884587 -23.7004107428 2.1809260185 10.8876695275 -12.3643141667 13.3006094890 -12.0426947964 77.7275680815 -0.7928572675 -0.1377759763 8.3000599387 5.6955480102 -14.7779845808 53.8698638529 23.4055778618 -1.2670513033 122.9069293358 -9.3267156701 -7.9926611001 27.8334482101 -13.0728937326 -2.6847655211 80.0096357876 -9.3646450145 -4.7236960833 60.6798119655 -8.8506098141 -12.3345005469 37.2062312464 -9.1793028397 -14.1493914777 46.8495515471 -9.9474187053 -8.7332060423 25.1375098659 -8.0097217241 -12.9888718357 79.1205849139 -13.8127840564 -12.5808180986 54.4352390698 -6.9349291984 -4.9599918469 25.4214660604 -1.5661756644 0.4849706546 5.1689754974 -6.7241498066 -4.1012574173 25.7227284498 -2.9083367617 -0.4852140070 3.5346566352 -5.4807205115 -10.2133857701 47.8659017776 0.3189268410 -15.8189809493 79.3743748399 -5.6657220776 -6.9772463875 46.3328010392 -1.1253532365 0.2312237149 4.1632401274 21.0202243218 26.8671709055 73.1861999408 38.9075167274 1.8685296547 -61.0244719778 -13.1370985411 -16.5407182585 50.4093701752 -2.7181519631 -3.7773741075 8.0294239164 7.3286691715 -17.5710928858 -73.1768035548 -43.2564183967 -31.0880175904 182.4220279354 14.4988300194 -28.5596948881 -156.2663100480 0.3723262124 -3.7754267011 -6.3148366763 -15.2930755089 4.7818411785 109.3806150116 -13.5920109435 14.4506619030 4.1571095768 -2.3879213543 5.8082866188 14.2666436396 3.4004573315 3.9698628293 -13.5913245227 -7.6596396811 -10.4566934987 -34.8630503708 -1.0752566854 -3.8419327037 -16.2602986409 0.9986532261 0.3914762907 -6.3192021671 -65.3802031784 0.7637991751 -112.5342127039 22.0527829970 -10.9280547983 0.3922347363 9.3322165188 50.2938243398 -13.4313657123 -10.5683632495 -2.7456167348 14.5353842560 -4.8884045081 -3.1875409598 7.5167838791 -1.3730524079 0.5663482938 3.1053824030 -24.2967276241 -5.6649574522 25.9564183688 -1.2394067148 -0.0343934472 1.9730790657 -6.9076773524 -2.3876842551 12.0892142360 17.8839847105 -17.3766393140 -10.8653594372 15.1864218979 -6.6611913964 4.7923343785 -0.9684806836 63.9971387199 -64.7833476276 -12.2190167385 -6.6519387515 27.4160131445 -9.6590748236 -19.1660397373 -9.7213594912 -11.8744982506 -13.8775921786 -2.4800775094 1.3756442525 9.9817850508 -18.0061108662 12.2357004374 11.4115851949 -117.5538271788 -8.9467350894 16.9824856822 -191.7408252688 5.0436165101 17.6224841918 -102.8464733651 8.7318791311 14.9921459738 -117.8696329815 6.7750698841 11.8917160785 -51.8595364492 -21.0102630095 6.5777283831 15.1001940430 -22.2897860927 -30.5936298355 -47.4373921165 -14.2977264914 -19.2333275757 -33.8094038654 -23.2174988995 -14.1305061529 15.6393990630 -6.4220925507 -1.8355891526 -10.1462573681 -59.8690818910 3.2333271697 -86.9672659591 30.0675071705 14.3946728094 -56.0021824970 26.9191662339 11.9545049588 -55.1550318405 7.9316561139 -2.0468805536 -88.9549369467 0.9970396673 -6.8385419318 -38.0967426968 2.8829281975 -10.6331603975 -44.9254115428 76.6701022153 -38.9529224383 49.1460122309 15.3448297747 -8.6699325406 12.1926372250 15.6615494603 2.8572864812 -34.0636718559 17.2459628195 0.6702397044 -44.1141254584 -4.7913869782 15.4341715510 -36.2289182950 -1.5472288538 4.3745680410 -50.7879230881 0.0255364283 0.6059322958 -1.0491717472 10.2936714685 -2.6316973520 -22.7157355457 8.7656797579 -9.3207636488 -38.2959699170 13.6197557528 15.2189739519 -38.0326176102 1.8608267533 25.9250199564 -44.4133551978 -35.5447089128 8.8444914924 0.5815516276 -0.0827035950 -4.7671203178 -12.5800719866 0.8241439340 1.1197681272 33.0789682417 -19.6272341828 -6.1016290866 -71.3594105595 5.2830978860 -3.7004372300 11.7874918549 24.0011923338 1.4649151973 44.3453424649 3.0294767712 -11.2556597144 6.6151442028 0.1458066717 -12.8939707300 12.4997290192 0.0783305295 -1.0533373509 0.5016327636 66.0533375322 -288.5277728142 308.2448791465 -1.1726339554 -2.0393662240 1.4424086975 -2.6634768452 -7.8952162270 11.7158634669 -6.2925346372 -15.1155144935 26.0472457133 -4.1042605370 -2.7336295814 13.8568471780 -1.2993768929 -1.0250539877 4.8407763006 2.2444288396 -6.4892142205 3.3864546697 16.9162489315 -0.2377264745 3.4756530484 -0.4827757905 2.4428879666 -3.3702631881 -0.0411387541 -3.5134818276 26.7286677964 1.0785370821 -2.0695755367 9.7822183784 -14.0794978499 -42.5824533468 19.9305994453 -18.0811475096 -35.2340328747 22.0625467990 35.1357301960 -42.0495551847 29.1703950918 -0.3435682364 2.6927829203 25.6990191901
        </DataArray>
        <DataArray type="Float32" Name="sliding spring" NumberOfComponents="3" format="ascii">