<?xml version="1.0"?>
<VTKFile type="UnstructuredGrid" version="0.1" byte_order="LittleEndian">
  <UnstructuredGrid>
    <FieldData>
      <DataArray type="Float32" Name="TIME"  NumberOfTuples="1" format="ascii"> 2.5500000000 </DataArray>
      <DataArray type="Int32"   Name="STEP"  NumberOfTuples="1" format="ascii"> 255000 </DataArray>
    </FieldData>
    <Piece NumberOfPoints="398" NumberOfCells="398">
      <Points>
        <DataArray type="Float32" NumberOfComponents="3" format="ascii">
 0.4248656077 0.2068247958 0.0759422592 0.5299835139 0.1286322026 0.0400902740 0.5050735823 0.1472902277 0.1825912055 0.6403309650 0.1082657370 0.1124592074 0.5396127328 0.3646962828 0.2039996151 0.5528628795 0.3591020553 0.2072254727 0.5678911335 0.4472840049 0.1939258740 0.7522017139 0.1787386087 0.1457370975 0.7585134992 0.1855911326 0.1501541424 0.6781373652 0.4551483024 0.1694648389 0.8496089452 0.2321587235 0.1150665404 0.7816293537 0.3733968794 0.0369720107 0.7953319842 0.3703138838 0.0373485649 0.8168262087 0.3857426344 0.0431745083 0.8042878617 0.3963502624 0.2240343194 0.8177016892 0.3880439249 0.2261928349 0.8970058457 0.3686624536 0.1723150377 0.7489573806 0.3245508240 0.6726858024 0.7715933936 0.2992913155 0.6582598877 0.7860261332 0.3639004737 0.5621488629 0.8677400436 0.6052392304 0.5111382972 0.9118152770 0.5556486365 0.5587190530 0.8933347402 0.6065787406 0.4947006939 0.9262236347 0.5446462758 0.5458334126 0.9417326104 0.3093622976 0.5254635949 0.9349240229 0.3343205522 0.5344007374 0.9466583497 0.4740629751 0.4508180266 0.2426831064 0.7997971641 0.0414074131 0.2550041327 0.8173382751 0.0914578026 0.0745409009 0.9091231926 0.1097898401 0.1543235371 0.7223188536 0.0815090798 0.0388481012 0.8885763020 0.1662299757 0.0554830350 0.8047834208 0.1553460828 0.0622451987 0.7985053559 0.1588803811 0.1716655190 0.7198406313 0.1453825864 0.1846701222 0.8263773018 0.1958311795 0.5696624667 0.7614145645 0.2455263283 0.6836954159 0.7584623627 0.2617668636 0.6518268444 0.7389198446 0.1620802915 0.7064492840 0.8129136490 0.2796422163 0.6573950434 0.7424563302 0.1621255474 0.6559148100 0.7439888104 0.1560624253 0.6050534700 0.8504639254 0.2446697819 0.6094903650 0.8548450287 0.2417832658 0.5207957216 0.7623147734 0.0984630462 0.7326496868 0.8581092159 0.2193680374 0.7273886661 0.8568455171 0.2066732584 0.5647753601 0.8549306194 0.1613309307 0.5655430945 0.8555393321 0.1539502652 0.1730883921 0.4807043908 0.3236684437 0.1676986209 0.4846855325 0.4415906529 0.1372095840 0.6603895799 0.2434460250 0.0843624651 0.6890422684 0.2636702351 0.1610019857 0.6613735169 0.2414216524 0.2576852148 0.4522142217 0.3447840110 0.2908214853 0.4616808726 0.4187187485 0.2909897401 0.5655084576 0.4523280439 0.3086336133 0.4589967902 0.2813294609 0.1182095957 0.7733039755 0.4080894303 0.2713216484 0.7854263948 0.2555497433 0.4240765148 0.5343439153 0.4164783632 0.4308571625 0.5455601196 0.4205631952 0.2460017792 0.8876086802 0.3715545515 0.3711247670 0.8402713125 0.4486923109 0.3884554780 0.8571705396 0.4473804358 0.4440482960 0.9114113196 0.2749298365 0.5616943156 0.7792366369 0.4616541395 0.7554625884 0.3393613507 0.5253661358 0.7491418776 0.3251154417 0.5221853633 0.7310411234 0.1923217577 0.5211153081 0.6605279643 0.0750027960 0.2089069881 0.6490926460 0.1078242627 0.2421734727 0.6082326923 0.1071841210 0.3161804077 0.5368084917 0.0942180972 0.3297709833 0.6497654611 0.8867034699 0.4452713466 0.6558263295 0.9007459256 0.3525095429 0.6572058101 0.9097065198 0.3464144049 0.7437349900 0.9446358301 0.5283421282 0.6975272286 0.9102992916 0.3310052936 0.7118963880 0.2412314557 0.2823324303 0.6923334742 0.1618247155 0.4376704001 0.7639621236 0.3793121932 0.3440275882 0.7707356105 0.3872244302 0.3523716975 0.5690851772 0.3189422665 0.3113870270 0.5335507471 0.2357766178 0.4478699646 0.4819227029 0.2672505327 0.3471219788 0.4709342146 0.3273642219 0.5039562818 0.4582431915 0.3355682474 0.5055478086 0.3861278353 0.4139789475 0.4441297275 0.5795568822 0.5972595313 0.5628759839 0.1272842988 0.2954912450 0.0794065703 0.1210214157 0.2920246760 0.0845401186 0.1781411007 0.3772350332 0.0528336847 0.1491848231 0.4388033278 0.0568118799 0.0950513890 0.4146544543 0.1045535813 0.2077578465 0.4386264831 0.0527650261 0.1964217253 0.4344276046 0.0567124319 0.2718650843 0.5419328478 0.0599518797 0.1116357555 0.4730187827 0.1348023583 0.1123445317 0.4827916322 0.1420326864 0.1047368990 0.4920104199 0.1450377226 0.0995447308 0.5073274126 0.1534446439 0.1196641593 0.6091632321 0.0768623127 0.1243081069 0.6141203175 0.0785430763 0.0731069493 0.6660878651 0.2039443932 0.0764851343 0.6738810013 0.1942208483 0.1368990042 0.3952863597 0.2410295481 0.2422125670 0.3041292593 0.2229839254 0.2365958943 0.2958153271 0.2228481712 0.2487061948 0.3044900852 0.2244114977 0.2293348095 0.2902095225 0.2219678149 0.2433824778 0.2948295825 0.2245370260 0.2197437523 0.2869286097 0.2202317771 0.2548625805 0.3066656937 0.2255142473 0.2368426731 0.2880814766 0.2239867413 0.2496206226 0.2953276378 0.2258873087 0.2609593365 0.3107897566 0.2263355452 0.2673060449 0.3172672164 0.2268941176 0.2743120113 0.3269066867 0.2271849687 0.0603275307 0.3238602673 0.2405522458 0.2818526457 0.3248941645 0.2291689231 0.2734192627 0.3270492531 0.3139734812 0.2819436968 0.3344281200 0.3145344274 0.0744052650 0.2508638159 0.2704877016 0.0724352878 0.1488451772 0.2300780393 0.1130149391 0.0685994636 0.2994140521 0.1289091854 0.0610871039 0.3107445741 0.2422522232 0.1318709542 0.3407278137 0.2508567793 0.1370582885 0.3419977085 0.2667427268 0.1556169963 0.3433605572 0.2741719004 0.1652463862 0.3438924140 0.2824430533 0.1696908528 0.3451600469 0.8679191859 0.1866462551 0.4388057616 0.8336818726 0.1057840382 0.4125779245 0.7587870427 0.1533890288 0.5977303294 0.7548324689 0.1422522420 0.5935172566 0.7470178146 0.1331128768 0.5912841065 0.2973147830 0.2801243207 0.5031616536 0.2898181395 0.2700255722 0.4140877518 0.2534999699 0.3450410259 0.3698611477 0.3102811063 0.3803399821 0.4286182361 0.6312912599 0.7388015178 0.5144414791 0.6934315217 0.6467628007 0.3835489220 0.7179987960 0.8411219906 0.5228735987 0.7601121507 0.7119190686 0.4431565793 0.7150657233 0.7763954172 0.3773387807 0.7224896044 0.7765642105 0.3764751787 0.7217467074 0.7830361462 0.3798934844 0.5481873791 0.5178808386 0.2034162273 0.6016764314 0.5231813175 0.2544416566 0.6024643357 0.5427583614 0.2596851639 0.6200424783 0.5473501329 0.0836201512 0.6262667289 0.5623851824 0.0836984961 0.6399056893 0.5592322675 0.0832584647 0.7413561310 0.6640242563 0.2510463887 0.8187168880 0.4748231937 0.2427174632 0.8265611265 0.4850376288 0.2453599635 0.7524088398 0.6663453633 0.2524252460 0.8342688035 0.4949635084 0.2478038920 0.7588446104 0.7526335577 0.1137490849 0.7644301132 0.6690098685 0.2538313591 0.7782253867 0.6723026660 0.2552947636 0.8026209191 0.7665637217 0.1615329457 0.8794299243 0.6238425992 0.0942652224 0.9217423904 0.5592528419 0.1912928010 0.8981092924 0.6354669046 0.0942518335 0.9265936616 0.6781188426 0.2684874539 0.9125145607 0.7262482729 0.2334552485 0.9396901598 0.6711477896 0.2630023862 0.3658527905 0.5765591622 0.0833479467 0.4803342292 0.7324429364 0.0279592615 0.4430326720 0.6659645160 0.0961066544 0.4495914547 0.6639646654 0.0952662825 0.4523355009 0.6598799364 0.0965928318 0.3894139894 0.1711508140 0.4216739706 0.3343280040 0.0835959377 0.4717565922 0.1711618815 0.1840715923 0.3885520886 0.2163968165 0.1306978341 0.4587599460 0.1403150551 0.0872445143 0.4244191780 0.9285708632 0.4500576769 0.5810533793 0.2542669445 0.1549617915 0.0768238193 0.2905360769 0.1241703983 0.1289596133 0.3212531887 0.0796902474 0.1134306066 0.3626136865 0.1664953991 0.0989913916 0.3618116986 0.1720333442 0.1001078432 0.3650573912 0.1699180221 0.1024755886 0.3680820001 0.1736266742 0.1065979718 0.3291191441 0.2036802215 0.1572370606 0.3370090332 0.2091275559 0.1616375323 0.0617454430 0.1503447640 0.5058008505 0.1851535485 0.1663351258 0.5386195993 0.1499011075 0.2658923956 0.5712994991 0.1483444774 0.2522255981 0.4787912532 0.0408593180 0.9382741693 0.1632788566 0.1579119706 0.9508843942 0.1726207634 0.1685810746 0.9468867098 0.1683307106 0.4623076144 0.4848395912 0.1661076966 0.4577481385 0.4752215717 0.1662384604 0.5258215818 0.3954496370 0.2669788795 0.8807307496 0.5610000899 0.0484144297 0.8724850225 0.5657485295 0.0455637957 0.8788724027 0.5639567072 0.0436084283 0.9528858095 0.5564840650 0.0824614052 0.0848603983 0.9509139954 0.2972594178 0.0909295817 0.9527338549 0.2984104871 0.7712011058 0.0774325157 0.2849991709 0.7320442293 0.0975392926 0.3049633265 0.7245533411 0.0995462877 0.3031237722 0.8351610394 0.1252682247 0.3223782542 0.8416791999 0.1387119542 0.3278995800 0.7707174166 0.1908850024 0.2038458303 0.7747345772 0.1947180305 0.2066763206 0.3426234434 0.1902193316 0.5344555571 0.3550188135 0.1906360529 0.5361988561 0.4139976105 0.2829449515 0.5664100992 0.9548993856 0.6061800663 0.3610195169 0.8663809822 0.6117987491 0.4001114874 0.8999162403 0.4790679076 0.3659210746 0.9022692935 0.4738062963 0.3628351643 0.8960215982 0.4718839919 0.3635557824 0.9027215541 0.3807540702 0.2926221744 0.8058069745 0.0773879546 0.5900196744 0.3432500293 0.9113996362 0.0686957502 0.3482553682 0.9041868477 0.0728547315 0.2973769453 0.8399036642 0.0897858023 0.2988434229 0.8343466961 0.0890977346 0.8006524270 0.6605798603 0.3595340426 0.6844023536 0.6155004755 0.3399598768 0.6751674448 0.6201200953 0.3384222637 0.1505744681 0.9040883123 0.4534406902 0.1568598846 0.9069172773 0.4543829180 0.1183436149 0.9135208201 0.2299885008 0.1206148261 0.9131854358 0.2376251022 0.2538583776 0.3185998507 0.1147661630 0.2556211585 0.3240382063 0.1154063466 0.2607372030 0.3190383797 0.1151258064 0.2621698172 0.3245765759 0.1156870434 0.2673293841 0.3190357860 0.1154430637 0.2631787743 0.3301127490 0.1161658303 0.2685373293 0.3247183781 0.1158616200 0.3468130749 0.2670673927 0.0577852462 0.2798054566 0.4118676806 0.0597689768 0.1971452666 0.4195482520 0.3309926728 0.3175372229 0.4047881913
[...]
      <PointData Scalars="overlap">
        <DataArray type="Float32" Name="overlap" format="ascii">
 0.0002254538 0.0000178846 0.0002056291 0.0000272882 0.0000867997 0.0000336673 0.0000067268 0.0000518878 0.0002480759 0.0002512058 0.0001094848 0.0000492206 0.0000735553 0.0004933339 0.0000275839 0.0002317331 0.0000932932 0.0000060382 0.0000061204 0.0001278502 0.0000225180 0.0000497646 0.0000312129 0.0000296235 0.0000237707 0.0000095018 0.0001203650 0.0000835041 0.0001927649 0.0001196950 0.0000304797 0.0000290005 0.0000076211 0.0000869529 0.0002835280 0.0000287186 0.0002010392 0.0000835931 0.0000471295 0.0000980770 0.0001039668 0.0001684829 0.0000238306 0.0000125854 0.0001840444 0.0000527141 0.0000015512 0.0000530864 0.0001664884 0.0000607599 0.0000791058 0.0002217808 0.0000635305 0.0000344886 0.0000152993 0.0000092507 0.0000519194 0.0002896002 0.0001519156 0.0000516034 0.0001181589 0.0000178347 0.0000945266 0.0000943418 0.0000250918 0.0003205690 0.0000198729 0.0000905025 0.0000901700 0.0000189618 0.0000296308 0.0000614424 0.0000074433 0.0000861404 0.0000187510 0.0000016469 0.0000080229 0.0000087619 0.0000385648 0.0001864201 0.0000089697 0.0000307760 0.0002622251 0.0001152671 0.0000363672 0.0001258455 0.0000100021 0.0000139381 0.0000047724 0.0000160756 0.0000166724 0.0000397645 0.0000071858 0.0000398096 0.0000269012 0.0001012472 0.0001230851 0.0000463358 0.0000057361 0.0000082161 0.0000277300 0.0000246970 0.0000826849 0.0000450538 0.0000528433 0.0000485585 0.0000604981 0.0000762549 0.0000621785 0.0000975359 0.0000384105 0.0000569824 0.0000136158 0.0001105269 0.0000158085 0.0000255687 0.0001253295 0.0001386501 0.0001237036 0.0000802754 0.0001386995 0.0000163913 0.0000310379 0.0000370025 0.0000328447 0.0000590611 0.0000283715 0.0000086398 0.0000406493 0.0001085339 0.0000462137 0.0000184765 0.0000023968 0.0000399347 0.0000016554 0.0000123519 0.0000049347 0.0000336495 0.0000389881 0.0000603597 0.0000192635 0.0000173369 0.0000080482 0.0000065754 0.0000122677 0.0000222445 0.0000205481 0.0000128428 0.0000108692 0.0000258542 0.0000088756 0.0001704235 0.0000144641 0.0000458595 0.0000110150 0.0000462180 0.0001710868 0.0000240353 0.0001047473 0.0002024660 0.0000361465 0.0000389008 0.0001533988 0.0000036051 0.0000395815 0.0002888030 0.0000076375 0.0000186771 0.0000144711 0.0000434698 0.0000043010 0.0000133666 0.0000081927 0.0000749159 0.0000375059 0.0000601999 0.0000613920 0.0000357557 0.0000609905 0.0000170314 0.0000350238 0.0000000828 0.0000567486 0.0000126636 0.0000173381 0.0000517326 0.0000187101 0.0000525665 0.0000299423 0.0000297349 0.0000202435 0.0000081146 0.0000290173 0.0000112295 0.0000228745 0.0000147999 0.0000044709 0.0000261239 0.0000156833 0.0000056980 0.0000675963 0.0000369536 0.0000022791 0.0000128368 0.0000078775 0.0000400645 0.0000104422 0.0000491001 0.0000639740 0.0000373637 0.0002484618 0.0000719402 0.0000080406 0.0000104522 0.0000074454 0.0000072148 0.0000114784 0.0000366176 0.0000336821 0.0000535914 0.0000648915 0.0000024211 0.0000079853 0.0000882688 0.0000310064 0.0000607064 0.0000851598 0.0000024510 0.0000074679 0.0000551557 0.0000897622 0.0000005058 0.0000287011 0.0000799747 0.0001172837 0.0003508944 0.0003216451 0.0000397388 0.0000256647 0.0001377054 0.0001623103 0.0000231111 0.0000390908 0.0000074989 0.0000152766 0.0000605064 0.0000176209 0.0000216636 0.0000119441 0.0000309252 0.0000742658 0.0000536372 0.0000057302 0.0000324687 0.0000232637 0.0000210489 0.0000334400 0.0000188715 0.0000234541 0.0000272861 0.0000620498 0.0000032685 0.0000056371 0.0000214701 0.0000013765 0.0000080154 0.0000690494 0.0002012023 0.0001007222 0.0000706845 0.0000617991 0.0000252695 0.0000537655 0.0000845621 0.0000195173 0.0000499772 0.0000230266 0.0001328540 0.0000053361 0.0000217532 0.0000399323 0.0000062226 0.0000001208 0.0000138553 0.0000076139 0.0000123806 0.0000692154 0.0000455648 0.0000090160 0.0000062168 0.0000202606 0.0000506298 0.0000417919 0.0000036998 0.0000224101 0.0000265462 0.0000097704 0.0000020226 0.0000134864 0.0000581946 0.0001165038 0.0000070561 0.0000207156 0.0000301126 0.0000080951 0.0000236469 0.0000219641 0.0000728301 0.0000742153 0.0000795138 0.0000088631 0.0000789269 0.0000033254 0.0000337249 0.0000160933 0.0000039010 0.0000086446 0.0000219489 0.0000321616 0.0000314013 0.0000288491 0.0000207285 0.0000060472 0.0000217161 0.0000137808 0.0000218598 0.0000042901 0.0000585646 0.0000110895 0.0000051311 0.0000112850 0.0000607278 0.0000877294 0.0000141171 0.0000072954 0.0000051535 0.0000503019 0.0000601812 0.0000342502 0.0000377060 0.0000593115 0.0000512735 0.0000146925 0.0000058446 0.0000108069 0.0000078075 0.0000076256 0.0000098424 0.0000054442 0.0000459223 0.0000167079 0.0000077271 0.0000328206 0.0000234513 0.0000009096 0.0000055349 0.0000595596 0.0000462198 0.0000194258 0.0000225657 0.0000419198 0.0000146011 0.0000079380 0.0000069211 0.0000339887 0.0000269938 0.0000104263 0.0000221609 0.0000404834 0.0000195853 0.0000140882 0.0000139141 0.0000067417 0.0000151436 0.0000078265 0.0000101824 0.0000159584 0.0000149673 0.0000046407 0.0000051000 0.0000516872 0.0000116813 0.0000609186 0.0000299375 0.0000318165 0.0000078807 0.0000192480 0.0000047944 0.0000027655 0.0000036295 0.0000652299 0.0000063668 0.0000315786 0.0000105403 0.0000235431 0.0000128373 0.0000247377 0.0001360871
        </DataArray>
        <DataArray type="Float32" Name="contact normal" NumberOfComponents="3" format="ascii">
 0.9747507807 -0.1893361913 -0.1183753449 0.1555848774 0.9312652563 0.3294516176 -0.0006372065 0.6164540664 -0.7873906134 -0.2103078882 0.7157854025 -0.6658992789 0.1103490197 -0.0480210170 -0.9927321269 0.2338254922 -0.1107043025 -0.9659555873 0.5992148485 -0.7719994436 -0.2120340169 -0.3785312722 0.6351398356 -0.6732840895 -0.3288748139 0.6782703929 -0.6571077772 -0.1641750596 -0.9501156072 -0.2651921618 -0.8558100715 0.4668480992 0.2228047884 -0.1400042553 -0.4490991820 0.8824447479 -0.1480003219 -0.4748748905 0.8675193042 -0.1169587409 -0.3830460578 0.9162949146 -0.0083273436 0.0626930672 -0.9979981136 0.0267988159 -0.0943839670 -0.9951751053 -0.8319949033 -0.0603870300 0.5514869786 -0.4683931335 0.3948434785 -0.7903837675 -0.3784802042 -0.4904356626 -0.7850003795 0.4267036861 -0.1496429073 0.8919254254 0.4063777705 -0.1798399965 0.8958318387 -0.6620519628 -0.1481332160 -0.7346725453 0.5876476621 -0.7239467556 0.3613465376 -0.6340650508 -0.2069747733 -0.7450657384 -0.0676267972 -0.3232457392 -0.9438955495 -0.7624896655 0.1937381400 -0.6173127595 0.3125017271 -0.0294051994 0.9494619554 -0.7342277260 -0.5295663070 0.4248166344 -0.7988408805 -0.6011100262 0.0228031600 -0.0013767774 -0.9554433159 0.2951714326 0.3770182294 0.7928973356 0.4787181530 0.3335831615 -0.6196454063 -0.7104659350 0.7209756308 0.5217217492 -0.4560707798 0.7537140440 0.4852997342 -0.4431696153 0.2852313916 0.6836374608 -0.6717759116 -0.4732871050 -0.4351830756 -0.7659079624 0.2186309748 -0.1884017752 -0.9574472664 -0.6235792343 0.7261398838 -0.2896028448 -0.5201694120 0.6630996420 0.5382589039 -0.1222849600 -0.0632415348 -0.9904781153 -0.3277440826 0.7301516896 0.5995517713 -0.7229364137 0.6861797896 0.0807479919 0.4062203202 -0.7683191274 -0.4946420624 0.4402994480 -0.7260752690 -0.5281582148 0.1713949656 0.2531820233 0.9521148191 -0.4363265098 -0.6609593012 0.6105341751 -0.9456357858 -0.3248567466 -0.0155259405 0.6139332435 -0.7892971011 0.0098009607 0.5989262497 -0.8008040056 0.0005403798 0.5472318722 0.8316311577 0.0944822504 0.4998118525 0.7781882142 -0.3802778135 0.0644276288 -0.3623428489 0.9298154336 0.7572578744 -0.0105125128 0.6530313919 0.1054390323 0.2946256639 0.9497780418 -0.1808835845 0.8143224835 -0.5515070459 -0.1033494895 0.6607298128 -0.7434749475 -0.0952104373 0.2007123465 -0.9750125777 -0.2508154221 0.5934774440 0.7647719579 0.4793205879 -0.4878923615 -0.7295291753 0.2611762890 -0.8735012187 0.4108315554 -0.4050072854 0.2950855866 -0.8653863850 -0.5610512126 0.6174375478 -0.5513550684 0.6797113014 -0.6364497986 -0.3645877131 0.1152454193 -0.2602394306 -0.9586417120 0.2785525743 -0.2555521684 -0.9257977925 -0.1151236754 -0.6947467329 0.7099813494 -0.1319822945 -0.1363855794 -0.9818246522 0.1889872269 -0.3259840265 0.9262927413 0.1771331397 -0.3355283351 0.9252267761 -0.3539292795 0.6917253228 -0.6294840291 -0.5815516726 -0.3308791429 0.7431800892 -0.6850159735 -0.6446658218 0.3393509898 -0.3519546625 0.0410010585 -0.9351186175 0.2481557872 0.1400502258 -0.9585429774 0.6234495475 0.3240119203 -0.7115665375 0.9444669534 -0.0566700515 0.3236829919 0.9482866440 0.0855608624 0.3056661243 -0.4734756671 0.6020666908 -0.6429125077 -0.5584333649 0.4656556203 0.6865253238 -0.4312495626 0.6832519111 0.5892288526 0.1343164422 0.8425283993 -0.5216368370 -0.6365635947 -0.7535046439 0.1643701359 0.0926920525 -0.3335336115 0.9381703009 0.0489920639 -0.2190276845 0.9744878917 0.3163023189 0.5395870816 -0.7802554866 0.7737811288 0.4542836833 0.4414624558 0.3336836076 0.5760469773 -0.7462071629 0.2732058444 0.6214685274 -0.7342584259 0.8864970266 0.4479452309 -0.1160521089 -0.3028169279 -0.8435993891 -0.4434433210 -0.2974571627 0.9482584064 0.1110190576 -0.3437183503 0.8246744797 0.4491878206 -0.8803494408 -0.1147590434 -0.4602338797 -0.2751885992 -0.8528893612 -0.4436789069 -0.0722189758 -0.8079374036 -0.5848261036 -0.2014299244 0.9574077724 0.2068727699 -0.5934959759 0.7299748981 0.3389678078 -0.3922087819 -0.5327753577 0.7498817838 0.3396738640 0.5385619169 -0.7710854219 0.3863003317 0.5406350721 -0.7473190567 0.3396590943 0.5385610352 -0.7710925438 0.3396551190 0.5385607978 -0.7710944606 0.1126342279 -0.4601174812 0.8806846395 0.1108412659 -0.4528210091 0.8846848860 -0.0837935161 -0.9413508059 -0.3268597664 0.7067019683 -0.6148173205 -0.3501028282 0.4599467537 -0.3548529415 -0.8139584594 -0.2235188370 0.1352151366 0.9652751920 -0.2231918370 0.1348095723 0.9654075736 -0.2230523062 0.1346369155 0.9654639142 -0.2232388368 0.1348678566 0.9653885658 -0.2225875436 0.1340602006 0.9656514113 -0.2236795053 0.1354144153 0.9652100367 -0.2227805589 0.1342998585 0.9655735967 -0.2224775680 0.1339238344 0.9656956758 -0.1802207697 0.0818628765 0.9802137234 -0.2226861126 0.1341937610 0.9656101334 -0.2226708680 0.1344269177 0.9655812179 -0.2230841688 0.1350063062 0.9654049673 0.1669360267 -0.3145225081 -0.9344559673 -0.2215299882 0.1354860989 0.9656955945 0.2534466182 -0.2169915670 -0.9426979747 0.2505115832 -0.2101696515 -0.9450252189 0.4823445857 -0.3851677584 -0.7867588567 0.7374679450 0.4353408224 0.5163520103 0.4636527498 0.3371370436 -0.8193685016 0.8230746356 -0.5669933331 -0.0326604404 0.2197675650 -0.1326048610 -0.9664978884 0.2253224656 -0.1300555469 -0.9655647784 0.2248690809 -0.1264220326 -0.9661528689 0.2037474298 -0.0979205962 -0.9741142344 0.2245737679 -0.1254492035 -0.9663483430 0.1756717482 -0.7374372050 0.6521700742 0.1959028060 0.1959946676 0.9608372291 -0.0155802772 0.4234244412 -0.9057974374 -0.0707377571 0.3607640482 -0.9299706830 -0.1004599327 0.3256018819 -0.9401548896 -0.0743553643 0.1549574989 -0.9851190047 -0.3376515595 0.8585488993 0.3858564653 0.1560668388 -0.5231878830 0.8378052166 -0.3067239559 -0.9366918150 -0.1689048805 0.9259521398 0.1042949221 -0.3629534460 0.5340504354 0.5979804053 0.5976701159 -0.6750000682 -0.6277804803 -0.3876423306 -0.9195095693 0.3290741763 -0.2149705524 0.0689760814 -0.6885739384 0.7218782665 0.0714394712 -0.6715822428 0.7374779272 0.0633393532 -0.3691957082 0.9271907330 0.4348408550 0.8794987082 -0.1933790398 -0.3196987455 -0.5168148394 -0.7941631658 0.2727026764 0.5234702512 -0.8072249664 -0.0187397333 0.0079267857 0.9997929728 -0.0187496442 0.0079570565 0.9997925465 0.0753991899 -0.0381816606 0.9964221610 0.2195127456 -0.5921893682 -0.7753230982 -0.1204657619 0.3287099840 -0.9367164708 -0.1204789446 0.3287208489 -0.9367109626 0.2194841949 -0.5920014128 -0.7754747033 -0.1204906121 0.3287304645 -0.9367060874 0.1357403542 -0.0261283990 0.9903998501 0.2192738213 -0.5917353258 -0.7757372593 0.2181234404 -0.5917963649 -0.7760149659 -0.3181167510 -0.8153491829 0.4837431577 -0.2059667142 0.1751918953 0.9627489353 -0.8647725882 0.4791925274 -0.1501429067 -0.0545779708 0.3320434645 0.9416838019 -0.6879583912 0.4288656726 -0.5854805605 -0.0388207290 -0.7615377857 -0.6469568393 0.1346410630 -0.2781432511 -0.9510563159 0.6640607662 0.3246356813 -0.6735242930 -0.2386438598 -0.2963500383 0.9247841710 -0.1922826095 -0.3520520236 -0.9160167961 -0.1771438759 -0.3510779861 -0.9194369445 -0.1801473917 -0.3565858220 -0.9167297687 -0.8774189986 0.4309543856 0.2107468113 -0.5000960291 0.4190474723 -0.7578279340 0.5889350293 -0.5446832246 -0.5970558736 0.2172809315 -0.1598084114 -0.9629383513 0.9732679892 0.2296685864 0.0013272330 -0.6192938245 0.5275865101 -0.5814874318 0.9097895511 -0.4077874061 0.0774106207 0.6530723317 0.0527433647 -0.7554565951 0.1091921779 0.9771600107 0.1823057373 -0.6847295616 -0.2364271758 0.6893820552 -0.6894294815 -0.2313967159 0.6863982444 -0.6822130823 -0.2397528771 0.6907270577 -0.6643645590 -0.2351402099 0.7094567037 0.4877556149 -0.4803243285 -0.7289602181 0.7528395965 -0.6492593796 -0.1081424986 0.0332208370 0.4262050776 0.9040163759 -0.6547338245 0.4061531137 0.6374662872 -0.0724449329 -0.4846407248 -0.8717081505 -0.5033488907 -0.6987217034 0.5083580189 0.3390284283 0.2884409815 -0.8954672104 -0.2373907451 0.0128373545 -0.9713294171 -0.2615783029 -0.0587857400 -0.9633903820 0.7523004038 0.2694378387 0.6012049180 0.1439875734 -0.6094788180 0.7796173094 -0.4400993265 0.8365827044 0.3262544428 0.2696937908 0.7976559122 0.5394537097 0.2716252877 0.8386185195 0.4721638294 0.2090933135 0.6355594574 -0.7431986022 -0.3846047359 0.7536541233 -0.5329959283 -0.2919930972 0.6684296404 0.6840627509 -0.2519072625 0.6666690171 0.7014949413 -0.1773005747 0.9573715756 0.2280442336 0.3002241526 0.5922486099 -0.7477346068 0.2806526710 0.5827406372 -0.7626581332 -0.2984618172 0.4463281651 -0.8436300805 -0.3000636487 0.4872069940 -0.8201165477 -0.1923611135 -0.5414405321 0.8184371401 -0.1957644797 -0.5312689807 0.8242751596 -0.4402862104 0.6284537856 -0.6412440193 0.0843746757 0.9896511267 0.1160670559 -0.6559153886 -0.6631191927 0.3606216012 -0.6477751823 -0.7391120995 -0.1846635250 0.6216093954 -0.6940417644 -0.3631911188 -0.4377405927 0.6553777873 -0.6155185858 -0.1216926286 0.3523723738 -0.9279141201 -0.2329866491 0.2568407522 -0.9379499184 -0.4786339476 0.7628182766 -0.4347617980 -0.1737281778 0.6566815987 0.7338854121 -0.7734369420 -0.6004095645 -0.2032329984 -0.7640907464 -0.6230746285 -0.1671626112 0.2986753970 0.2188530881 -0.9289221351 0.2974127115 0.2166301982 -0.9298478565 -0.2439439947 0.3579135704 -0.9013263580 0.3978280986 0.4542052257 -0.7971388943 0.3423621106 0.4963629945 -0.7977543249 -0.3679722890 0.7958204632 0.4809014296 -0.3649537871 0.8040993233 0.4692899014 -0.8854916290 0.3731735047 0.2768503393 -0.8869871408 0.3678067427 0.2792346899 0.0322186338 0.0956145012 -0.9948968925 0.0299187003 0.0983161713 -0.9947053844 0.0682078131 0.0531547991 -0.9962541150 0.0336851946 0.0939300509 -0.9950087704 0.0706383260 0.0502636993 -0.9962348054 0.0315148075 0.0964874212 -0.9948351594 0.0697467560 0.0513270285 -0.9962434071 -0.9735231972 0.2173026009 0.0709377483 -0.4238529026 -0.7489760673 -0.5092971309 0.4890270992 -0.6031907572 0.6300899988 0.0011274213 0.0684393564 -0.9976546414 0.1759441673 -0.2961282402 -0.9388033422 0.5084307061 -0.3526471784 -0.7855814310 0.1803302480 -0.9835933138 -0.0050194368 0.9711444048 -0.0971654897 -0.2178013144 -0.2651273463 -0.9614071748 0.0735100980 -0.2908781179 -0.5680869904 0.7698487461 0.6003721743 -0.1236026721 -0.7901111515 0.4877603141 0.4212413534 0.7646212122 -0.0679739340 -0.9155849959 -0.3963378100 -0.1218032901 0.3804345282 -0.9167516175 0.3198496385 -0.2090805276 0.9241112172 -0.6040714528 -0.0347790079 -0.7961708991 -0.2391579341 -0.6359410359 0.7337455154 -0.2315475162 -0.6370169589 0.7352517540 0.8045559994 -0.5925286584 0.0399929099 0.5655069950 -0.0072888147 0.8247112899 0.0996572241 0.7561054146 0.6468176248 -0.1534933578 0.6421928148 -0.7510180941 0.7465748506 0.1815176116 -0.6400604261 0.1414910859 -0.5278223681 -0.8374866091 -0.6001460028 -0.5560448528 -0.5750120842 -0.2655390671 0.5367635554 -0.8008582205 -0.8479786975 -0.3158366279 -0.4256516805 -0.7710766499 -0.1248595637 -0.6243804044 0.3590303323 0.2544328169 -0.8979761479 0.3517992472 0.2536792940 -0.9010461173 0.3589453358 0.2544579413 -0.8980030078 0.4646776757 -0.0593574671 0.8834881713 -0.0936839646 -0.1858461962 -0.9781025029 -0.0848640573 -0.1981260985 -0.9764958478 -0.1138718518 -0.6161820566 -0.7793284766 0.0886113185 0.1653403895 0.9822477233 0.7157255502 -0.2994109965 -0.6309437312 0.8781764112 0.0218680223 0.4778367717 0.4082266719 0.9091159778 -0.0828198240 0.9197803671 -0.1472319074 -0.3637675656 0.4277870786 0.5480322302 -0.7187898789 0.4394525280 0.5374470906 -0.7197444689 0.4455987696 0.4935961314 -0.7468631706 -0.0485458610 -0.6506530428 0.7578218243 -0.0481441238 -0.6506577849 0.7578433811 -0.0497866128 -0.6508232417 0.7575951434 -0.0495886912 -0.6508267628 0.7576050993 -0.0496808817 -0.6508516512 0.7575776779 0.3639439412 -0.0156620242 -0.9312891649 0.9432764493 0.2503105779 -0.2181150038 -0.4286027948 0.5268527452 0.7339794474 -0.4289938246 0.5264270990 0.7340564064 -0.4345571074 0.5250237979 0.7317855779 -0.7262428114 0.3025397242 0.6172852616 -0.0362906820 0.2405626375 -0.9699549494 0.0041015132 0.2892631338 -0.9572408354 0.0163233707 0.3096307166 -0.9507167648 0.2013585788 0.3973594447 -0.8952989414 0.1077965634 0.8494525117 -0.5165368634 -0.3693055525 -0.1432348135 -0.9182032439 -0.2700042422 0.0784271323 -0.9596597804 -0.3530763830 -0.2886645088 0.8899493632 -0.3215958239 -0.9253137664 -0.2009242638 0.2932625366 -0.5837430297 -0.7571269114 -0.0298801362 -0.6451846721 -0.7634421499 0.2668572364 0.3719766401 -0.8890560132 0.3191302874 0.1144163968 -0.9407787986 -0.3964572996 0.0135083595 -0.9179537754 -0.3972066831 0.0123004895 -0.9176467451 -0.3732521141 0.0502303705 -0.9263691323 -0.3734696710 0.0499389308 -0.9262972029 0.1842974798 -0.3894461050 0.9024223902 -0.2694350138 0.0358363981 -0.9623515604 -0.2120533872 0.0192446491 -0.9770685772 -0.0860801677 -0.1622050084 0.9829952899 0.6307021984 -0.6959403191 -0.3433392042 0.6344299342 -0.6932850044 -0.3418399644 -0.2452326234 0.8945752791 -0.3736255216 -0.4035592010 0.9127936209 0.0628313363 -0.5502956281 -0.7400407035 0.3866710215 0.1735268969 0.3615570926 -0.9160594330 0.1744344535 0.3463832876 -0.9217327376 0.3688163358 -0.7351845460 -0.5687514342 -0.4895853041 -0.5444916952 -0.6810543472 0.0874899124 0.4826696502 0.8714215536 0.0729896273 0.4577521261 0.8860787241 0.2545044498 0.7719148245 -0.5825590002 0.2177221218 0.8018748347 -0.5564115628 -0.1608794520 -0.9839835537 0.0767734853 -0.0928219098 0.9011135926 0.4235308563 -0.4452086878 -0.8639982156 -0.2351516698 0.7007712716 -0.1018226652 0.7060819852 0.7780971153 -0.0149456529 0.6279661668 -0.1273165286 -0.6337151235 0.7630174596 -0.1228041641 -0.6298716209 0.7669295134 -0.1272851348 -0.6337400463 0.7630019975 -0.1227738115 -0.6299708719 0.7668528489 -0.1228306957 -0.6300186632 0.7668044758 -0.0929299087 -0.6040491507 0.7915103636 -0.1219283725 -0.6310512443 0.7660990792 -0.0934719512 -0.6037154970 0.7917010756 -0.0933504178 -0.6036199300 0.7917882795 -0.0310422396 0.6016851696 0.7981298993 0.5127286890 0.8092254882 -0.2868159702 0.9208293398 0.2510002150 0.2984496927 -0.0855880458 0.2755152375 -0.9574790025 -0.0768037971 0.2818553902 -0.9563779147 0.3274556405 0.4936093963 -0.8056814304 0.6858398349 0.7189956352 0.1125566407 -0.1523914758 -0.6449752138 0.7488550005 -0.1524396124 -0.6449531911 0.7488641705 -0.1524530753 -0.6449508478 0.7488634480 -0.1524049738 -0.6449563656 0.7488684868 -0.1524356082 -0.6449528594 0.7488652712 -0.1524555786 -0.6449505379 0.7488632053 -0.1524523275 -0.6449509123 0.7488635447 -0.1523858163 -0.6449585716 0.7488704854 -0.1524008485 -0.6449568406 0.7488689172 0.0626687260 0.7552421355 -0.6524430608 0.1032455616 0.2809210766 -0.954161256