<?xml version="1.0"?>
<VTKFile type="UnstructuredGrid" version="0.1" byte_order="LittleEndian">
  <UnstructuredGrid>
    <FieldData>
      <DataArray type="Float32" Name="TIME"  NumberOfTuples="1" format="ascii"> 6.8499999999 </DataArray>
      <DataArray type="Int32"   Name="STEP"  NumberOfTuples="1" format="ascii"> 685000 </DataArray>
    </FieldData>
    <Piece NumberOfPoints="399" NumberOfCells="399">
      <Points>
        <DataArray type="Float32" NumberOfComponents="3" format="ascii">
 0.4248652842 0.2068256594 0.0759431781 0.5299832789 0.1286330273 0.0400908511 0.5050734632 0.1472908438 0.1825918880 0.6403308335 0.1082665293 0.1124597669 0.5396125067 0.3646968577 0.2040010077 0.5528625987 0.3591026574 0.2072269993 0.5678908782 0.4472846114 0.1939272978 0.7522016092 0.1787393357 0.1457378039 0.7585133876 0.1855918435 0.1501548607 0.6781371344 0.4551492865 0.1694662825 0.8496089157 0.2321595717 0.1150671724 0.7816290852 0.3733981832 0.0369727216 0.7953317237 0.3703152133 0.0373492478 0.8168259534 0.3857439909 0.0431750178 0.8042876550 0.3963508782 0.2240358882 0.8177014736 0.3880446048 0.2261943277 0.8970057172 0.3686632817 0.1723159665 0.7489582049 0.3245514530 0.6726919423 0.7715942178 0.2992916888 0.6582665075 0.7860266139 0.3638988789 0.5621543137 0.8677399886 0.6052367444 0.5111383403 0.9118158299 0.5556472027 0.5587203794 0.8933347738 0.6065757886 0.4947007579 0.9262234282 0.5446443984 0.5458340801 0.9417329099 0.3093601837 0.5254694331 0.9349242181 0.3343186025 0.5344059110 0.9466582308 0.4740593369 0.4508205166 0.2426832590 0.7997989027 0.0414070129 0.2550044107 0.8173397880 0.0914574804 0.0745409782 0.9091238591 0.1097907476 0.1543238426 0.7223198919 0.0815085488 0.0388484127 0.8885769550 0.1662309079 0.0554835889 0.8047841386 0.1553464451 0.0622457285 0.7985060343 0.1588807202 0.1716660960 0.7198414201 0.1453823332 0.1846706561 0.8263780316 0.1958310527 0.5696635716 0.7614169204 0.2455279427 0.6836968235 0.7584638634 0.2617673237 0.6518279385 0.7389200671 0.1620811462 0.7064510150 0.8129153286 0.2796414860 0.6573961568 0.7424565990 0.1621264130 0.6559158489 0.7439889619 0.1560631336 0.6050556162 0.8504655453 0.2446685601 0.6094924882 0.8548466860 0.2417820357 0.5207969062 0.7623145985 0.0984627552 0.7326518679 0.8581098786 0.2193666262 0.7273908114 0.8568458670 0.2066720294 0.5647773740 0.8549313806 0.1613298002 0.5655450157 0.8555400914 0.1539491217 0.1730877374 0.4807040497 0.3236717460 0.1676972813 0.4846862611 0.4415939747 0.1372093589 0.6603889956 0.2434475703 0.0843620469 0.6890416475 0.2636714188 0.1610017588 0.6613727894 0.2414233197 0.2576846342 0.4522146908 0.3447880231 0.2908204479 0.4616815314 0.4187233024 0.2909880893 0.5655098829 0.4523301379 0.3086336063 0.4589964603 0.2813335925 0.1182082946 0.7733041964 0.4080898461 0.2713210112 0.7854264427 0.2555513592 0.4240756052 0.5343448221 0.4164836612 0.4308563625 0.5455607909 0.4205682882 0.2460004589 0.8876089545 0.3715553212 0.3711228263 0.8402725015 0.4486941867 0.3884537117 0.8571716068 0.4473817872 0.4440474444 0.9114116329 0.2749317165 0.5616924234 0.7792383840 0.4616584226 0.7554643705 0.3393624735 0.5253691429 0.7491433753 0.3251167693 0.5221878930 0.7310371908 0.1923241514 0.5211103570 0.6605264928 0.0750018071 0.2089068703 0.6490922676 0.1078241232 0.2421730603 0.6082329207 0.1071852799 0.3161808207 0.5368086568 0.0942205627 0.3297721003 0.6497679163 0.8867013809 0.4452708170 0.6558295373 0.9007447512 0.3525089198 0.6572088957 0.9097054188 0.3464138629 0.7437356540 0.9446352810 0.5283425618 0.6975304183 0.9102991646 0.3310051390 0.7118973603 0.2412333251 0.2823346065 0.6923349483 0.1618258227 0.4376725220 0.7639628424 0.3793141414 0.3440307555 0.7707363071 0.3872264481 0.3523745632 0.5690858581 0.3189441429 0.3113900974 0.5335523662 0.2357778511 0.4478725299 0.4819232916 0.2672517044 0.3471253142 0.4709356455 0.3273645917 0.5039602283 0.4582445646 0.3355684766 0.5055519823 0.3861285327 0.4139793564 0.4441346066 0.5795580853 0.5972599293 0.5628813520 0.1272837991 0.2954928970 0.0794087172 0.1210210356 0.2920263329 0.0845424061 0.1781397515 0.3772367017 0.0528340856 0.1491831884 0.4388050775 0.0568122230 0.0950506733 0.4146559935 0.1045549096 0.2077564345 0.4386278061 0.0527658956 0.1964204004 0.4344289411 0.0567132868 0.2718639737 0.5419342133 0.0599528121 0.1116346191 0.4730201657 0.1348037222 0.1123434383 0.4827929912 0.1420340763 0.1047358247 0.4920117629 0.1450392029 0.0995437080 0.5073287231 0.1534462150 0.1196631483 0.6091650480 0.0768636217 0.1243071088 0.6141221343 0.0785443436 0.0731065017 0.6660890166 0.2039464016 0.0764847359 0.6738822742 0.1942228967 0.1368994684 0.3952855579 0.2410311216 0.2422139155 0.3041294814 0.2229849800 0.2365973029 0.2958155095 0.2228491617 0.2487075470 0.3044903397 0.2244125286 0.2293362551 0.2902096611 0.2219687767 0.2433839008 0.2948297967 0.2245379772 0.2197452144 0.2869286962 0.2202327434 0.2548639218 0.3066659816 0.2255152744 0.2368441426 0.2880816488 0.2239876493 0.2496220439 0.2953278884 0.2258882350 0.2609606514 0.3107900803 0.2263365895 0.2673073150 0.3172675807 0.2268952035 0.2743132115 0.3269070993 0.2271861280 0.0603286021 0.3238588544 0.2405528723 0.2818538699 0.3248946105 0.2291700249 0.2734199007 0.3270489438 0.3139753381 0.2819442628 0.3344278812 0.3145364303 0.0744068878 0.2508621387 0.2704874450 0.0724376741 0.1488437849 0.2300766933 0.1130179513 0.0685978900 0.2994121845 0.1289121351 0.0610855472 0.3107427739 0.2422544743 0.1318700331 0.3407272514 0.2508589865 0.1370574235 0.3419972125 0.2667447923 0.1556162394 0.3433602306 0.2741738918 0.1652456833 0.3438921662 0.2824450075 0.1696902018 0.3451598660 0.8679167047 0.1866465856 0.4388069075 0.8336789819 0.1057844881 0.4125787975 0.7587788867 0.1533931338 0.5977284004 0.7548242814 0.1422563722 0.5935152986 0.7470095662 0.1331170816 0.5912820515 0.2973212269 0.2801230704 0.5031618343 0.2898216247 0.2700269404 0.4140877716 0.2535000182 0.3450427962 0.3698646941 0.3102824938 0.3803417245 0.4286209362 0.6312882163 0.7388038503 0.5144366048 0.6934344444 0.6467633230 0.3835480523 0.7179961303 0.8411238836 0.5228713698 0.7601126993 0.7119197957 0.4431579682 0.7150695878 0.7763955891 0.3773373122 0.7224934942 0.7765644824 0.3764738905 0.7217504778 0.7830364052 0.3798920953 0.5481887050 0.5178815945 0.2034166740 0.6016775835 0.5231822777 0.2544422379 0.6024654812 0.5427593572 0.2596858290 0.6200444780 0.5473509967 0.0836205774 0.6262687265 0.5623860471 0.0836989566 0.6399076653 0.5592331451 0.0832590230 0.7413573238 0.6640252448 0.2510475495 0.8187181424 0.4748241847 0.2427192847 0.8265623651 0.4850386275 0.2453618012 0.7524100214 0.6663463659 0.2524264728 0.8342700278 0.4949645145 0.2478057455 0.7588464495 0.7526344633 0.1137503474 0.7644312829 0.6690108868 0.2538326581 0.7782265433 0.6723037026 0.2552961462 0.8026224748 0.7665645626 0.1615344273 0.8794319577 0.6238434208 0.0942666576 0.9217436341 0.5592539643 0.1912949128 0.8981112652 0.6354675882 0.0942531682 0.9265947793 0.6781198859 0.2684895487 0.9125158340 0.7262495902 0.2334574648 0.9396912807 0.6711488488 0.2630045476 0.3658526597 0.5765591142 0.0833472372 0.4803355738 0.7324428175 0.0279608368 0.4430332370 0.6659640567 0.0961074101 0.4495919945 0.6639641449 0.0952669848 0.4523359979 0.6598793692 0.0965934654 0.3894154769 0.1711527400 0.4216740226 0.3343313284 0.0835966712 0.4717570988 0.1711632372 0.1840693466 0.3885513596 0.2163990346 0.1306965335 0.4587593308 0.1403176414 0.0872415699 0.4244185008 0.9285700283 0.4500573619 0.5810556238 0.2542664822 0.1549647477 0.0768239781 0.2905342381 0.1241737780 0.1289609054 0.3212495799 0.0796920025 0.1134336370 0.3626136364 0.1664948411 0.0989913438 0.3618116990 0.1720328005 0.1001077655 0.3650573564 0.1699174487 0.1024755396 0.3680820003 0.1736260905 0.1065979124 0.3291205277 0.2036829167 0.1572354545 0.3370106115 0.2091301187 0.1616359466 0.0617469809 0.1503409059 0.5057992493 0.1851546557 0.1663325959 0.5386185584 0.1499009170 0.2658892089 0.5712991303 0.1483449888 0.2522232160 0.4787904370 0.0408595832 0.9382736567 0.1632802046 0.1579123569 0.9508839551 0.1726202186 0.1685814282 0.9468863536 0.1683300614 0.4623076820 0.4848421945 0.1661080685 0.4577480279 0.4752243420 0.1662387423 0.5258198024 0.3954508136 0.2669791764 0.8807308377 0.5610013522 0.0484159818 0.8724851767 0.5657498780 0.0455653062 0.8788725271 0.5639579531 0.0436099333 0.9528860669 0.5564842168 0.0824626724 0.0848633817 0.9509151452 0.2972593824 0.0909325401 0.9527350370 0.2984104593 0.1709239451 0.9291524339 0.3642662994 0.7712012893 0.0774327537 0.2849989683 0.7320445324 0.0975393242 0.3049635271 0.7245536372 0.0995463525 0.3031240189 0.8351613793 0.1252679948 0.3223784779 0.8416795452 0.1387116631 0.3278999402 0.7707170832 0.1908865729 0.2038471680 0.7747342604 0.1947195719 0.2066776740 0.3426308736 0.1902170740 0.5344598854 0.3550260634 0.1906340448 0.5362036959 0.4140020637 0.2829444458 0.5664160508 0.9549030199 0.6061792067 0.3610204371 0.8663849794 0.6117989049 0.4001128559 0.8999183288 0.4790676327 0.3659225081 0.9022712486 0.4738060573 0.3628365423 0.8960235086 0.4718838665 0.3635570849 0.9027219521 0.3807537230 0.2926236391 0.8058006345 0.0773942045 0.5900182314 0.3432519932 0.9113998505 0.0686960494 0.3482573294 0.9041870675 0.0728550545 0.2973778022 0.8399046061 0.0897858581 0.2988442008 0.8343476216 0.0890977593 0.8006528631 0.6605806577 0.3595351078 0.6844031057 0.6155011448 0.3399599092 0.6751681432 0.6201206941 0.3384223744 0.1505763195 0.9040903893 0.4534404276 0.1568616691 0.9069193762 0.4543829143 0.1183446520 0.9135207568 0.2299883165 0.1206159481 0.9131854809 0.2376248971 0.2538572637 0.3186013212 0.1147669465 0.2556200560 0.3240396735 0.1154071272 0.2607360858 0.3190398549 0.1151265037 0.2621687160 0.3245780397 0.1156877548 0.2673282724 0.3190372524 0.1154436877 0.2631776854 0.3301142072 0.1161665477 0.2685362255 0.3247198428 0.1158622543 0.3468116547 0.2670684927 0.0577854847 0.2798042326 0.4118690043 0.0597690880 0.1971447480 0.4195476200
[...]
      <PointData Scalars="overlap">
        <DataArray type="Float32" Name="overlap" format="ascii">
 0.0002252428 0.0000175439 0.0002056664 0.0000271245 0.0000864758 0.0000330083 0.0000067283 0.0000515971 0.0002477816 0.0002506544 0.0001090710 0.0000483674 0.0000726631 0.0004920575 0.0000267058 0.0002309443 0.0000930451 0.0000060985 0.0000060224 0.0001283244 0.0000223569 0.0000487040 0.0000316178 0.0000307877 0.0000235488 0.0000097870 0.0001204889 0.0000832958 0.0001926358 0.0001202841 0.0000298776 0.0000287981 0.0000077548 0.0000869398 0.0002828844 0.0000290414 0.0001985766 0.0000834255 0.0000474211 0.0000985705 0.0001044690 0.0001689399 0.0000244356 0.0000128992 0.0001825084 0.0000521985 0.0000013579 0.0000530636 0.0001661489 0.0000599910 0.0000788441 0.0002212874 0.0000634897 0.0000339265 0.0000157489 0.0000085630 0.0000548887 0.0002887837 0.0001530217 0.0000507137 0.0001167726 0.0000162742 0.0000951051 0.0000947980 0.0000266907 0.0003199952 0.0000190300 0.0000904595 0.0000912506 0.0000192875 0.0000291763 0.0000604904 0.0000070830 0.0000864512 0.0000180532 0.0000016354 0.0000080354 0.0000089365 0.0000386263 0.0001853557 0.0000087319 0.0000307567 0.0002615271 0.0001143223 0.0000378358 0.0001249372 0.0000100382 0.0000136304 0.0000040241 0.0000155922 0.0000166598 0.0000397142 0.0000069872 0.0000393179 0.0000274141 0.0001009549 0.0001226990 0.0000460320 0.0000055811 0.0000080670 0.0000274893 0.0000243923 0.0000817325 0.0000440068 0.0000531377 0.0000486922 0.0000603346 0.0000762060 0.0000622167 0.0000973711 0.0000385695 0.0000568972 0.0000139383 0.0001102541 0.0000158308 0.0000253682 0.0001249530 0.0001381702 0.0001231163 0.0000799404 0.0001379651 0.0000155070 0.0000300792 0.0000371900 0.0000322444 0.0000592313 0.0000282870 0.0000085433 0.0000405994 0.0001086542 0.0000464322 0.0000187237 0.0000024238 0.0000394320 0.0000015713 0.0000123791 0.0000048892 0.0000333532 0.0000391303 0.0000602790 0.0000184787 0.0000167196 0.0000083693 0.0000068468 0.0000119882 0.0000224097 0.0000202638 0.0000126431 0.0000104098 0.0000260358 0.0000088155 0.0001698338 0.0000139089 0.0000453625 0.0000111236 0.0000460248 0.0001709209 0.0000241047 0.0001046085 0.0002025691 0.0000361720 0.0000388736 0.0001536768 0.0000026474 0.0000401253 0.0002874425 0.0000075738 0.0000179116 0.0000144357 0.0000428858 0.0000045674 0.0000128609 0.0000078571 0.0000746792 0.0000376789 0.0000590223 0.0000610974 0.0000359818 0.0000598543 0.0000173366 0.0000351402 0.0000002010 0.0000570812 0.0000124963 0.0000176617 0.0000518977 0.0000191912 0.0000531503 0.0000302857 0.0000300404 0.0000205223 0.0000077286 0.0000283382 0.0000114256 0.0000228293 0.0000144607 0.0000044008 0.0000258997 0.0000156917 0.0000056988 0.0000674967 0.0000369971 0.0000019732 0.0000129407 0.0000075900 0.0000005133 0.0000399767 0.0000107317 0.0000494430 0.0000638618 0.0000373151 0.0002481113 0.0000715463 0.0000076817 0.0000103180 0.0000074310 0.0000071251 0.0000117782 0.0000363766 0.0000336238 0.0000537763 0.0000647798 0.0000026778 0.0000081521 0.0000881258 0.0000310139 0.0000607615 0.0000854174 0.0000027230 0.0000074793 0.0000564067 0.0000903338 0.0000005270 0.0000288828 0.0000795403 0.0001167914 0.0003505518 0.0003212134 0.0000394683 0.0000251648 0.0001373552 0.0001621285 0.0000228661 0.0000386729 0.0000069066 0.0000152040 0.0000603001 0.0000174168 0.0000222245 0.0000123130 0.0000312877 0.0000744823 0.0000535232 0.0000057813 0.0000333237 0.0000231391 0.0000207682 0.0000333894 0.0000189198 0.0000229945 0.0000277236 0.0000619151 0.0000030358 0.0000056398 0.0000216254 0.0000017921 0.0000079351 0.0000690062 0.0002009710 0.0001002232 0.0000704491 0.0000618107 0.0000253354 0.0000529508 0.0000843867 0.0000198202 0.0000510861 0.0000226777 0.0001328135 0.0000052197 0.0000218380 0.0000398798 0.0000060113 0.0000130479 0.0000071184 0.0000120507 0.0000693414 0.0000463525 0.0000084325 0.0000061259 0.0000199288 0.0000510121 0.0000428968 0.0000048482 0.0000222937 0.0000263929 0.0000095815 0.0000018186 0.0000133323 0.0000581840 0.0001162253 0.0000070429 0.0000208444 0.0000300534 0.0000082287 0.0000234219 0.0000218224 0.0000726806 0.0000746687 0.0000793633 0.0000092663 0.0000793432 0.0000033201 0.0000341083 0.0000165475 0.0000030890 0.0000093762 0.0000223111 0.0000324156 0.0000314912 0.0000290392 0.0000209657 0.0000060660 0.0000220642 0.0000136377 0.0000218768 0.0000040191 0.0000588383 0.0000080887 0.0000053870 0.0000114893 0.0000608694 0.0000874029 0.0000142530 0.0000077065 0.0000050856 0.0000505023 0.0000601751 0.0000345038 0.0000374957 0.0000593654 0.0000511286 0.0000145101 0.0000060126 0.0000102697 0.0000046284 0.0000061415 0.0000086872 0.0000097857 0.0000055255 0.0000459201 0.0000166715 0.0000076647 0.0000325905 0.0000233684 0.0000007117 0.0000053653 0.0000594602 0.0000460779 0.0000198602 0.0000226244 0.0000418786 0.0000146322 0.0000078739 0.0000069435 0.0000334593 0.0000269816 0.0000106105 0.0000221606 0.0000403146 0.0000195200 0.0000137119 0.0000140852 0.0000065978 0.0000152091 0.0000080152 0.0000100530 0.0000155658 0.0000151694 0.0000045686 0.0000049206 0.0000517414 0.0000115510 0.0000604395 0.0000295436 0.0000313669 0.0000095495 0.0000184083 0.0000045339 0.0000029862 0.0000040906 0.0000649390 0.0000059283 0.0000313004 0.0000111517 0.0000235847 0.0000132827 0.0000245149 0.0001355733
        </DataArray>
        <DataArray type="Float32" Name="contact normal" NumberOfComponents="3" format="ascii">
 0.9747559681 -0.1893110164 -0.1183728925 0.1555710679 0.9312596775 0.3294739077 -0.0006370609 0.6164432691 -0.7873990666 -0.2103063495 0.7157953152 -0.6658891095 0.1103660088 -0.0480324040 -0.9927296874 0.2338442802 -0.1107129770 -0.9659500450 0.5992033156 -0.7720087479 -0.2120327328 -0.3785336840 0.6351393621 -0.6732831803 -0.3288764360 0.6782702334 -0.6571071301 -0.1641726263 -0.9501205676 -0.2651758960 -0.8558112062 0.4668481656 0.2228002908 -0.1400039110 -0.4491070413 0.8824408027 -0.1480000755 -0.4748828768 0.8675149745 -0.1169581574 -0.3830535860 0.9162918420 -0.0083260592 0.0626793607 -0.9979989852 0.0267969070 -0.0943974429 -0.9951738786 -0.8319736698 -0.0603933686 0.5515183169 -0.4684043370 0.3948192511 -0.7903892307 -0.3784751205 -0.4904663005 -0.7849836885 0.4266448195 -0.1496990982 0.8919441563 0.4063559928 -0.1798493888 0.8958398319 -0.6620802058 -0.1481347924 -0.7346467752 0.5876657901 -0.7239342576 0.3613420952 -0.6340948767 -0.2069777435 -0.7450395299 -0.0676081524 -0.3232813534 -0.9438846880 -0.7624916567 0.1937151569 -0.6173175127 0.3124753360 -0.0294305821 0.9494698548 -0.7342386489 -0.5295568610 0.4248095307 -0.7988567805 -0.6010896033 0.0227844902 -0.0013695649 -0.9554469179 0.2951598064 0.3770223310 0.7929136001 0.4786879825 0.3335672761 -0.6196523726 -0.7104673177 0.7209806001 0.5217085712 -0.4560779987 0.7537180104 0.4852867551 -0.4431770822 0.2852032699 0.6836234431 -0.6718021158 -0.4732837393 -0.4351857068 -0.7659085472 0.2186661682 -0.1884393478 -0.9574318352 -0.6235801590 0.7261396413 -0.2896014617 -0.5201690601 0.6631045314 0.5382532205 -0.1223160614 -0.0632317654 -0.9904748987 -0.3277449689 0.7301528534 0.5995498695 -0.7229386705 0.6861783623 0.0807399152 0.4062277060 -0.7683020091 -0.4946625857 0.4403019898 -0.7260583039 -0.5281794175 0.1714153785 0.2531715679 0.9521139245 -0.4363227129 -0.6609509938 0.6105458819 -0.9456346903 -0.3248603688 -0.0155168700 0.6139408372 -0.7892915270 0.0097741385 0.5989317804 -0.8007998879 0.0005117560 0.5472194367 0.8316357562 0.0945137935 0.4998104683 0.7782008129 -0.3802538503 0.0644270238 -0.3623482197 0.9298133825 0.7572577620 -0.0105288421 0.6530312592 0.1054426603 0.2945919829 0.9497880864 -0.1809033839 0.8143292722 -0.5514905276 -0.1033734711 0.6607661282 -0.7434393380 -0.0957169640 0.2005488699 -0.9749966223 -0.2508227747 0.5934652820 0.7647789842 0.4792868094 -0.4879586301 -0.7295070456 0.2611653631 -0.8734878771 0.4108668662 -0.4050280683 0.2950868264 -0.8653762354 -0.5610679500 0.6174400191 -0.5513352686 0.6796794910 -0.6364899156 -0.3645769835 0.1152706641 -0.2602840217 -0.9586265707 0.2785774285 -0.2555905426 -0.9257797205 -0.1151304371 -0.6947381439 0.7099886576 -0.1319849726 -0.1364302246 -0.9818180895 0.1889918153 -0.3259892174 0.9262899783 0.1771373530 -0.3355338576 0.9252239667 -0.3538984367 0.6917215367 -0.6295055299 -0.5815556858 -0.3308931805 0.7431706987 -0.6850122562 -0.6446808807 0.3393298851 -0.3519599232 0.0409979361 -0.9351167744 0.2481193860 0.1400654680 -0.9585501734 0.6234842386 0.3239618954 -0.7115589186 0.9444721234 -0.0566729806 0.3236673932 0.9482909508 0.0855582283 0.3056535004 -0.4734709469 0.6020971550 -0.6428874539 -0.5584091759 0.4656545912 0.6865456969 -0.4312450462 0.6832495057 0.5892349473 0.1343165545 0.8425419738 -0.5216148824 -0.6365652667 -0.7534981423 0.1643934635 0.0926932640 -0.3335342895 0.9381699401 0.0489975296 -0.2190345308 0.9744860781 0.3163059719 0.5396137819 -0.7802355404 0.7737778865 0.4542859410 0.4414658154 0.3336507892 0.5760570762 -0.7462140416 0.2731734838 0.6214756430 -0.7342644434 0.8864798252 0.4479935899 -0.1159968228 -0.3029200522 -0.8435900354 -0.4433906788 -0.2974526497 0.9482576772 0.1110373753 -0.3437131441 0.8246689898 0.4492018831 -0.8803520465 -0.1147583006 -0.4602290807 -0.2751924320 -0.8528871194 -0.4436808389 -0.0722251174 -0.8079355334 -0.5848279288 -0.2014298309 0.9574087835 0.2068681817 -0.5934935610 0.7299776029 0.3389662112 -0.3922031551 -0.5327732811 0.7498862021 0.3396602252 0.5385659968 -0.7710885802 0.3862870884 0.5406391624 -0.7473229432 0.3396454538 0.5385651150 -0.7710957026 0.3396414772 0.5385648776 -0.7710976201 0.1126234543 -0.4601021325 0.8806940361 0.1108305197 -0.4528056566 0.8846940902 -0.0838071053 -0.9413545062 -0.3268456252 0.7066996423 -0.6148240231 -0.3500957529 0.4599582256 -0.3548454736 -0.8139552325 -0.2235059171 0.1352027366 0.9652799206 -0.2231789168 0.1347971843 0.9654122903 -0.2230393728 0.1346245162 0.9654686312 -0.2232259240 0.1348554760 0.9653932812 -0.2225746073 0.1340478153 0.9656561124 -0.2236666087 0.1354020383 0.9652147617 -0.2227676155 0.1342874570 0.9655783077 -0.2224646358 0.1339114581 0.9657003713 -0.1802069200 0.0818509123 0.9802172688 -0.2226731626 0.1341813545 0.9656148439 -0.2226579197 0.1344145048 0.9655859318 -0.2230712231 0.1349938782 0.9654096966 0.1669232677 -0.3145202010 -0.9344590231 -0.2215171121 0.1354736840 0.9657002899 0.2534592992 -0.2169795383 -0.9426973340 0.2505244191 -0.2101582159 -0.9450243594 0.4823455330 -0.3851673479 -0.7867584768 0.7374708117 0.4353330862 0.5163544383 0.4636768639 0.3371314283 -0.8193571663 0.8230560338 -0.5670202272 -0.0326623209 0.2197734511 -0.1326030128 -0.9664968035 0.2253284117 -0.1300536780 -0.9655636425 0.2248751272 -0.1264203816 -0.9661516777 0.2037530462 -0.0979194702 -0.9741131728 0.2245799317 -0.1254477389 -0.9663471007 0.1756553419 -0.7374296565 0.6521830284 0.1958809616 0.1959953880 0.9608415357 -0.0155785741 0.4234320988 -0.9057938870 -0.0707337427 0.3607700541 -0.9299686584 -0.1004546424 0.3256070078 -0.9401536796 -0.0743057041 0.1549386650 -0.9851257140 -0.3376758230 0.8585540999 0.3858236593 0.1560714449 -0.5231907902 0.8378025430 -0.3066320299 -0.9367103226 -0.1689691386 0.9258893283 0.1042667684 -0.3631217327 0.5340552635 0.5979768701 0.5976693387 -0.6750392593 -0.6277286146 -0.3876580773 -0.9195437868 0.3290279897 -0.2148948724 0.0689900372 -0.6885786362 0.7218724517 0.0714553455 -0.6715883155 0.7374708591 0.0633663563 -0.3692008936 0.9271868232 0.4348805344 0.8794769858 -0.1933886042 -0.3197014093 -0.5167992805 -0.7941722185 0.2726853094 0.5234830457 -0.8072225362 -0.0187490156 0.0079272673 0.9997927950 -0.0187589189 0.0079575338 0.9997923688 0.0753911757 -0.0381786907 0.9964228812 0.2195190540 -0.5921838942 -0.7753254932 -0.1204670968 0.3287105681 -0.9367160941 -0.1204802815 0.3287214349 -0.9367105850 0.2194905045 -0.5919959379 -0.7754770969 -0.1204919509 0.3287310524 -0.9367057088 0.1357914633 -0.0261344930 0.9903926831 0.2192801411 -0.5917298490 -0.7757396506 0.2181298171 -0.5917908869 -0.7760173510 -0.3180740175 -0.8153306587 0.4838024766 -0.2059587142 0.1752066124 0.9627479686 -0.8647630219 0.4792096420 -0.1501433817 -0.0545664414 0.3320562771 0.9416799522 -0.6879673911 0.4288351562 -0.5854923378 -0.0387156326 -0.7615597242 -0.6469373125 0.1347031187 -0.2781039590 -0.9510590191 0.6640553021 0.3246307580 -0.6735320532 -0.2386430065 -0.2963065950 0.9247983116 -0.1923036427 -0.3520418965 -0.9160162728 -0.1771649006 -0.3510679555 -0.9194367236 -0.1801684993 -0.3565758992 -0.9167294803 -0.8774164534 0.4309647093 0.2107362964 -0.5001455855 0.4190871992 -0.7577732595 0.5889339935 -0.5446832217 -0.5970568979 0.2175244925 -0.1596566677 -0.9629085334 0.9732604891 0.2297002518 0.0013471090 -0.6193169012 0.5275431065 -0.5815022328 0.9097935332 -0.4077801461 0.0774020627 0.6530871860 0.0527848729 -0.7554408545 0.1090836035 0.9771221487 0.1825734754 -0.6847302956 -0.2364567672 0.6893711769 -0.6894297628 -0.2314266510 0.6863878695 -0.6822141302 -0.2397820842 0.6907158842 -0.6643652850 -0.2351701004 0.7094461163 0.4877477156 -0.4803063076 -0.7289773774 0.7528398486 -0.6492570117 -0.1081549588 0.0332294876 0.4261964979 0.9040201028 -0.6546392201 0.4064891867 0.6373492234 -0.0727237473 -0.4846305017 -0.8716906179 -0.5033514271 -0.6987138175 0.5083663464 0.3390146901 0.2884266529 -0.8954770269 -0.2373867278 0.0128334683 -0.9713304502 -0.2615758445 -0.0587915721 -0.9633906937 0.7522844011 0.2694535444 0.6012179033 0.1439987565 -0.6094707920 0.7796215183 -0.4401294928 0.8365767981 0.3262288927 0.2696945559 0.7976519541 0.5394591797 0.2716268764 0.8386178882 0.4721640367 0.2090916768 0.6355618219 -0.7431970406 -0.3845821569 0.7536678429 -0.5329928210 -0.2919741798 0.6684401841 0.6840605226 -0.2518868664 0.6666794954 0.7014923072 -0.8247794699 0.4462210895 0.3473119136 -0.1772989864 0.9573738061 0.2280361042 0.3002252619 0.5922459427 -0.7477362740 0.2806540794 0.5827382861 -0.7626594113 -0.2984387080 0.4463300532 -0.8436372569 -0.3000407501 0.4872088780 -0.8201238062 -0.1923660963 -0.5414369892 0.8184383127 -0.1957698389 -0.5312647230 0.8242766309 -0.4403345788 0.6284758932 -0.6411891377 0.0843785287 0.9896444362 0.1161212889 -0.6559039957 -0.6631175921 0.3606452654 -0.6477044323 -0.7391616463 -0.1847133697 0.6216546092 -0.6939956973 -0.3632017608 -0.4376983467 0.6554036763 -0.6155210626 -0.1216546676 0.3523893910 -0.9279126354 -0.2329525359 0.2568624725 -0.9379524435 -0.4786198322 0.7628191334 -0.4347758340 -0.1737046277 0.6567058014 0.7338693295 -0.7734228177 -0.6004255484 -0.2032395285 -0.7640759386 -0.6230910004 -0.1671692714 0.2986761241 0.2188551606 -0.9289214130 0.2974134140 0.2166323026 -0.9298471415 -0.2439372582 0.3579369841 -0.9013188834 0.3978112138 0.4542191174 -0.7971394053 0.3423449757 0.4963762999 -0.7977533995 -0.3679626597 0.7958016983 0.4809398487 -0.3649441074 0.8040811626 0.4693285442 -0.8854929208 0.3731738918 0.2768456857 -0.8869885607 0.3678066893 0.2792302500 0.0322018663 0.0956250437 -0.9948964222 0.0299019285 0.0983266474 -0.9947048532 0.0681917490 0.0531656460 -0.9962546358 0.0336685206 0.0939405290 -0.9950083456 0.0706223282 0.0502745454 -0.9962353923 0.0314981359 0.0964978289 -0.9948346779 0.0697307676 0.0513378347 -0.9962439695 -0.9735284860 0.2172808311 0.0709318496 -0.4238752248 -0.7489766690 -0.5092776680 0.4890280436 -0.6031939150 0.6300862430 0.0011444110 0.0684543574 -0.9976535928 0.1759359967 -0.2961186752 -0.9388078905 0.5084294956 -0.3526620028 -0.7855755596 0.1803341655 -0.9835925660 -0.0050252257 0.9711377321 -0.0971643618 -0.2178315679 -0.2651210861 -0.9614119774 0.0734698542 -0.2908611541 -0.5680926202 0.7698510011 0.6003699886 -0.1235693772 -0.7901180201 0.4877572266 0.4212441364 0.7646216486 -0.0680087202 -0.9155790044 -0.3963456832 -0.1219539227 0.3803772329 -0.9167553662 0.3198536793 -0.2090733949 0.9241114323 -0.6040757657 -0.0347629654 -0.7961683274 -0.2391612418 -0.6359410219 0.7337444494 -0.2315504922 -0.6370170059 0.7352507761 0.8045639811 -0.5925172104 0.0400019453 0.5654658212 -0.0073250018 0.8247392009 0.0996615368 0.7560923238 0.6468322626 -0.1534733682 0.6421882437 -0.7510260881 0.7465931237 0.1815143254 -0.6400400436 0.1414892506 -0.5278150203 -0.8374915500 -0.6001564710 -0.5560276956 -0.5750177493 -0.2655254716 0.5367721079 -0.8008569960 -0.8479720438 -0.3158350910 -0.4256660759 -0.7710803887 -0.1248550907 -0.6243766816 0.3590316666 0.2544339729 -0.8979752869 0.3518004655 0.2536805367 -0.9010452917 0.3589465593 0.2544590870 -0.8980021941 0.4646790271 -0.0593369349 0.8834888398 -0.0937032067 -0.1858342143 -0.9781029362 -0.0848833685 -0.1981145251 -0.9764965175 -0.1139210761 -0.6161855219 -0.7793185427 0.0885971062 0.1653897654 0.9822406926 0.7157452936 -0.2994743828 -0.6308912496 0.8781451193 0.0218799723 0.4778937291 0.4081442257 0.9091571810 -0.0827738563 0.9198158967 -0.1472116360 -0.3636859227 0.4277954344 0.5480234074 -0.7187916327 0.4394605134 0.5374381562 -0.7197462647 -0.0485471556 -0.6506534056 0.7578214298 -0.0481454271 -0.6506581478 0.7578429867 -0.0497879486 -0.6508236043 0.7575947441 -0.0495900438 -0.6508271252 0.7576046995 -0.0496822634 -0.6508520131 0.7575772764 0.3639489219 -0.0156225235 -0.9312878819 0.9432776400 0.2503009178 -0.2181209401 -0.4285687683 0.5269194786 0.7339514111 -0.4289597935 0.5264938505 0.7340284197 -0.4345231980 0.5250903376 0.7317579707 -0.7262213292 0.3025958099 0.6172830444 -0.0362771990 0.2405706725 -0.9699534609 0.0041143200 0.2892702204 -0.9572386390 0.0163377445 0.3096396633 -0.9507136041 0.2013719755 0.3973487545 -0.8953006728 0.1078221683 0.8494459878 -0.5165422479 -0.3692986425 -0.1432373361 -0.9182056296 -0.2699967633 0.0784218125 -0.9596623193 -0.3530757970 -0.2887000568 0.8899380646 -0.3215940933 -0.9253112807 -0.2009384804 0.2932614481 -0.5837301680 -0.7571372491 -0.0298859140 -0.6451725196 -0.7634521937 0.2668481915 0.3719998622 -0.8890490117 0.3191516270 0.1144575039 -0.9407665591 -0.3964118637 0.0135425352 -0.9179728940 -0.3971612230 0.0123348785 -0.9176659598 -0.3732041567 0.0502633505 -0.9263866650 -0.3734216709 0.0499720202 -0.9263147699 0.1842379288 -0.3894888120 0.9024161185 -0.2693502762 0.0358336360 -0.9623753837 -0.2119685466 0.0192435556 -0.9770870078 -0.0860993218 -0.1622352071 0.9829886288 0.6305989233 -0.6960970033 -0.3432112468 0.6343292741 -0.6934405851 -0.3417111747 -0.2452335835 0.8945664629 -0.3736459996 -0.4035222949 0.9128095457 0.0628370168 -0.5503011592 -0.7400322945 0.3866792434 0.1735312959 0.3615623304 -0.9160565324 0.1744388779 0.3463884823 -0.9217299481 0.3688396536 -0.7351878625 -0.5687320254 -0.4895648018 -0.5444989789 -0.6810632620 0.0874874715 0.4826738583 0.8714194678 0.0729863186 0.4577583202 0.8860757968 0.2545769507 0.7718856526 -0.5825659752 0.2177948841 0.8018492176 -0.5564200038 -0.1614235154 -0.9838730813 0.0770467953 -0.0928345821 0.9011132840 0.4235287355 -0.4452325564 -0.8639919281 -0.2351295790 0.7007692553 -0.1018076950 0.7060861449 0.7781029411 -0.0149212308 0.6279595289 -0.1273900885 -0.6337176461 0.7630030867 -0.1228776062 -0.6298743761 0.7669154870 -0.1273589126 -0.6337427533 0.7629874377 -0.1228474730 -0.6299738134 0.7668386354 -0.1229045697 -0.6300217787 0.7667900789 -0.0930033788 -0.6040541994 0.7914978811 -0.1220025772 -0.6310545553 0.7660845380 -0.0935455851 -0.6037206585 0.7916884425 -0.0934242197 -0.6036252415 0.7917755256 -0.0310403988 0.6016997269 0.7981189963 0.5127635164 0.8091976908 -0.2868321347 0.9208301183 0.2509973994 0.2984496586 -0.0789506730 0.2649960145 -0.9610119164 -0.0745170226 0.2682598922 -0.9604602249 -0.0701935812 0.2713693450 -0.9599122563 0.3275276315 0.4936608840 -0.8056206193 0.6858922949 0.7189477888 0.1125426000 -0.1523940932 -0.6449718293 0.7488573828 -0.1524422295 -0.6449498066 0.7488665526 -0.1524556922 -0.6449474633 0.7488658301 -0.1524075897 -0.6449529812 0.7488708691 -0.1524382251 -0.6449494749 0.7488676534 -0.1524581947 -0.6449471534 0.7488655875 -0.1524549437 -0.6449475279 0.7488659269 -0.1523884330 -0.6449551871 0.7488728678 -0.1524034650 -0.6449534561 0.7488712996 0.0626327501 0.755248844