<?xml version="1.0"?>
<VTKFile type="UnstructuredGrid" version="0.1" byte_order="LittleEndian">
  <UnstructuredGrid>
    <FieldData>
      <DataArray type="Float32" Name="TIME"  NumberOfTuples="1" format="ascii"> 5.9499999999 </DataArray>
      <DataArray type="Int32"   Name="STEP"  NumberOfTuples="1" format="ascii"> 595000 </DataArray>
    </FieldData>
    <Piece NumberOfPoints="399" NumberOfCells="399">
      <Points>
        <DataArray type="Float32" NumberOfComponents="3" format="ascii">
 0.4248652864 0.2068255176 0.0759430648 0.5299832524 0.1286328689 0.0400907945 0.5050734003 0.1472907599 0.1825917740 0.6403307793 0.1082663815 0.1124597319 0.5396124774 0.3646967389 0.2040008496 0.5528625798 0.3591025313 0.2072268139 0.5678908748 0.4472844697 0.1939271509 0.7522015529 0.1787391805 0.1457377753 0.7585133307 0.1855916927 0.1501548293 0.6781371214 0.4551491103 0.1694661602 0.8496088716 0.2321593844 0.1150671731 0.7816290914 0.3733979525 0.0369727064 0.7953317294 0.3703149808 0.0373492333 0.8168259611 0.3857437589 0.0431750124 0.8042876214 0.3963507279 0.2240357506 0.8177014402 0.3880444434 0.2261942180 0.8970056850 0.3686630955 0.1723159418 0.7489580427 0.3245513176 0.6726907647 0.7715940643 0.2992915916 0.6582652520 0.7860265561 0.3638991028 0.5621533030 0.8677399673 0.6052371318 0.5111382363 0.9118156601 0.5556474393 0.5587200075 0.8933347165 0.6065762742 0.4947006069 0.9262233852 0.5446447068 0.5458338140 0.9417328927 0.3093605436 0.5254683775 0.9349241969 0.3343189369 0.5344049521 0.9466582761 0.4740599410 0.4508200522 0.2426831896 0.7997986613 0.0414070204 0.2550043568 0.8173395918 0.0914574660 0.0745409454 0.9091237670 0.1097906046 0.1543237692 0.7223197326 0.0815085620 0.0388483560 0.8885768639 0.1662307721 0.0554835010 0.8047840344 0.1553463732 0.0622456430 0.7985059344 0.1588806508 0.1716660060 0.7198413094 0.1453823187 0.1846705773 0.8263779260 0.1958310229 0.5696633247 0.7614166001 0.2455276810 0.6836965418 0.7584636381 0.2617672368 0.6518277191 0.7389199694 0.1620810005 0.7064506843 0.8129150925 0.2796415180 0.6573959320 0.7424564979 0.1621262685 0.6559156389 0.7439888715 0.1560630097 0.6050552457 0.8504653162 0.2446686278 0.6094921224 0.8548464494 0.2417821032 0.5207966887 0.7623145422 0.0984627087 0.7326514964 0.8581097375 0.2193667549 0.7273904568 0.8568457708 0.2066721262 0.5647770378 0.8549312368 0.1613298418 0.5655446910 0.8555399482 0.1539491650 0.1730876956 0.4807040768 0.3236712569 0.1676974097 0.4846861488 0.4415934757 0.1372092166 0.6603891067 0.2434474244 0.0843619333 0.6890417498 0.2636713416 0.1610016183 0.6613729394 0.2414231668 0.2576846095 0.4522146621 0.3447873867 0.2908205183 0.4616813999 0.4187226349 0.2909881978 0.5655097291 0.4523295017 0.3086335008 0.4589965199 0.2813328884 0.1182083977 0.7733040644 0.4080897976 0.2713209031 0.7854264981 0.2555511960 0.4240756595 0.5343447007 0.4164828852 0.4308564141 0.5455606791 0.4205675310 0.2460004798 0.8876089067 0.3715553200 0.3711229745 0.8402722856 0.4486938024 0.3884538024 0.8571714671 0.4473816812 0.4440473483 0.9114116633 0.2749315222 0.5616925546 0.7792381655 0.4616577599 0.7554643882 0.3393621902 0.5253685407 0.7491434672 0.3251164391 0.5221873694 0.7310381824 0.1923236598 0.5211112970 0.6605265077 0.0750018303 0.2089067450 0.6490922154 0.1078240740 0.2421729714 0.6082328243 0.1071851243 0.3161806527 0.5368085766 0.0942203345 0.3297718781 0.6497674863 0.8867017522 0.4452708661 0.6558290036 0.9007448719 0.3525089503 0.6572083905 0.9097055200 0.3464138718 0.7437355412 0.9446354807 0.5283423698 0.6975298913 0.9102990800 0.3310050900 0.7118971585 0.2412329078 0.2823342974 0.6923346960 0.1618255215 0.4376722332 0.7639626973 0.3793137064 0.3440302565 0.7707361705 0.3872259975 0.3523741294 0.5690857141 0.3189437209 0.3113896455 0.5335521178 0.2357775839 0.4478721254 0.4819231653 0.2672513962 0.3471248462 0.4709354172 0.3273644343 0.5039596547 0.4582443448 0.3355683408 0.5055513754 0.3861283714 0.4139791638 0.4441338992 0.5795579024 0.5972597659 0.5628805073 0.1272838442 0.2954926297 0.0794084170 0.1210210649 0.2920260817 0.0845420862 0.1781399201 0.3772364731 0.0528340377 0.1491833984 0.4388048614 0.0568122498 0.0950507955 0.4146557771 0.1045548384 0.2077567368 0.4386276307 0.0527658829 0.1964206835 0.4344287775 0.0567132776 0.2718642183 0.5419340565 0.0599527966 0.1116348495 0.4730199816 0.1348036147 0.1123436563 0.4827928076 0.1420339693 0.1047360420 0.4920115863 0.1450390725 0.0995439143 0.5073285525 0.1534460671 0.1196633591 0.6091648086 0.0768634983 0.1243073163 0.6141218970 0.0785442239 0.0731065863 0.6660888389 0.2039461633 0.0764848280 0.6738820991 0.1942226583 0.1368994112 0.3952855458 0.2410308203 0.2422137323 0.3041292935 0.2229847692 0.2365971106 0.2958153276 0.2228489593 0.2487073632 0.3044901467 0.2244123216 0.2293360572 0.2902094860 0.2219685777 0.2433837063 0.2948296098 0.2245377808 0.2197450141 0.2869285292 0.2202325430 0.2548637396 0.3066657835 0.2255150685 0.2368439411 0.2880814684 0.2239874584 0.2496218493 0.2953276962 0.2258880432 0.2609604732 0.3107898767 0.2263363817 0.2673071435 0.3172673708 0.2268949903 0.2743130505 0.3269068821 0.2271859052 0.0603284577 0.3238589348 0.2405527129 0.2818537053 0.3248943880 0.2291698108 0.2734198073 0.3270488628 0.3139750362 0.2819441791 0.3344277903 0.3145361121 0.0744066538 0.2508622608 0.2704874260 0.0724373192 0.1488438532 0.2300768614 0.1130174861 0.0685979975 0.2994124654 0.1289116816 0.0610856575 0.3107430400 0.2422541275 0.1318700466 0.3407273309 0.2508586473 0.1370574277 0.3419972785 0.2667444776 0.1556162254 0.3433602600 0.2741735903 0.1652456602 0.3438921743 0.2824447121 0.1696901702 0.3451598647 0.8679171854 0.1866464603 0.4388067426 0.8336794224 0.1057843864 0.4125786813 0.7587805487 0.1533923394 0.5977289086 0.7548259325 0.1422555804 0.5935158093 0.7470112161 0.1331162857 0.5912825840 0.2973202501 0.2801235811 0.5031617473 0.2898213105 0.2700269744 0.4140877152 0.2535000887 0.3450425982 0.3698640601 0.3102821329 0.3803418162 0.4286204664 0.6312885349 0.7388036944 0.5144373198 0.6934339510 0.6467633033 0.3835482669 0.7179963994 0.8411238363 0.5228715389 0.7601125520 0.7119198359 0.4431577637 0.7150689059 0.7763956146 0.3773374560 0.7224928087 0.7765644920 0.3764740099 0.7217498077 0.7830364248 0.3798922216 0.5481885185 0.5178813970 0.2034166592 0.6016774289 0.5231821183 0.2544422209 0.6024653184 0.5427591888 0.2596857762 0.6200442312 0.5473507868 0.0836205468 0.6262684767 0.5623858385 0.0836989217 0.6399074177 0.5592329383 0.0832589733 0.7413571292 0.6640251007 0.2510474187 0.8187179801 0.4748240564 0.2427191378 0.8265622029 0.4850384992 0.2453616548 0.7524098280 0.6663462215 0.2524263328 0.8342698656 0.4949643860 0.2478055996 0.7588461674 0.7526342890 0.1137501251 0.7644310908 0.6690107420 0.2538325081 0.7782263525 0.6723035574 0.2552959845 0.8026222313 0.7665644339 0.1615342225 0.8794316905 0.6238432731 0.0942665178 0.9217434907 0.5592538066 0.1912947283 0.8981110050 0.6354674443 0.0942529935 0.9265945870 0.6781197807 0.2684893214 0.9125156202 0.7262494632 0.2334572296 0.9396910916 0.6711487421 0.2630043193 0.3658526202 0.5765587378 0.0833473903 0.4803352469 0.7324424238 0.0279605025 0.4430330569 0.6659637638 0.0961072871 0.4495918156 0.6639638567 0.0952668565 0.4523358260 0.6598790887 0.0965933473 0.3894151739 0.1711526820 0.4216738781 0.3343308398 0.0835968041 0.4717569260 0.1711629666 0.1840697485 0.3885514395 0.2163987049 0.1306968715 0.4587594234 0.1403172595 0.0872420803 0.4244186593 0.9285702831 0.4500574952 0.5810548324 0.2542665591 0.1549642701 0.0768239108 0.2905346353 0.1241732008 0.1289605919 0.3212502338 0.0796916820 0.1134330163 0.3626136917 0.1664949164 0.0989912289 0.3618117443 0.1720328722 0.1001076606 0.3650574103 0.1699175246 0.1024754259 0.3680820498 0.1736261659 0.1065978017 0.3291204119 0.2036824310 0.1572356171 0.3370104608 0.2091296602 0.1616361152 0.0617468703 0.1503415002 0.5057996008 0.1851546026 0.1663330828 0.5386187841 0.1499010197 0.2658898058 0.5712991887 0.1483449799 0.2522236203 0.4787905538 0.0408595377 0.9382736833 0.1632800733 0.1579122937 0.9508840082 0.1726202557 0.1685813698 0.9468864025 0.1683301106 0.4623076713 0.4848416017 0.1661080114 0.4577480667 0.4752237134 0.1662386984 0.5258201116 0.3954505452 0.2669791873 0.8807307390 0.5610009118 0.0484159958 0.8724850624 0.5657494211 0.0455653346 0.8788724066 0.5639574890 0.0436099431 0.9528860257 0.5564839943 0.0824625422 0.0848630581 0.9509149841 0.2972594152 0.0909322414 0.9527348291 0.2984104622 0.1709236789 0.9291519510 0.3642661551 0.7712013400 0.0774326385 0.2849990052 0.7320445561 0.0975392066 0.3049635065 0.7245536641 0.0995462330 0.3031239837 0.8351613778 0.1252679669 0.3223784573 0.8416795355 0.1387116470 0.3278999035 0.7707171612 0.1908862837 0.2038470117 0.7747343339 0.1947192880 0.2066775170 0.3426296135 0.1902176151 0.5344586832 0.3550248608 0.1906345267 0.5362024771 0.4140012756 0.2829445220 0.5664151996 0.9549022938 0.6061793374 0.3610205644 0.8663841893 0.6117987914 0.4001128741 0.8999178756 0.4790676611 0.3659224327 0.9022708291 0.4738060762 0.3628364538 0.8960230943 0.4718838577 0.3635570143 0.9027218420 0.3807537944 0.2926235149 0.8058022427 0.0773932624 0.5900186061 0.3432516930 0.9113997920 0.0686959443 0.3482570300 0.9041870075 0.0728549445 0.2973777007 0.8399044384 0.0897858130 0.2988441123 0.8343474566 0.0890977186 0.8006527391 0.6605805373 0.3595349561 0.6844029336 0.6155010154 0.3399599421 0.6751679828 0.6201205783 0.3384223896 0.1505758947 0.9040900945 0.4534405365 0.1568612618 0.9069190721 0.4543829551 0.1183445058 0.9135207651 0.2299883261 0.1206157925 0.9131854731 0.2376249089 0.2538573768 0.3186009659 0.1147667795 0.2556201666 0.3240393180 0.1154069679 0.2607361991 0.3190394987 0.1151263522 0.2621688261 0.3245776848 0.1156876089 0.2673283851 0.3190368977 0.1154435496 0.2631777931 0.3301138529 0.1161664082 0.2685363366 0.3247194877 0.1158621218 0.3468118453 0.2670683234 0.0577854024 0.2798044262 0.4118687931 0.0597692469 0.1971447728 0.4195476120
[...]
      <PointData Scalars="overlap">
        <DataArray type="Float32" Name="overlap" format="ascii">
 0.0002252973 0.0000175562 0.0002057763 0.0000271613 0.0000865413 0.0000331429 0.0000067716 0.0000516425 0.0002478359 0.0002507089 0.0001091024 0.0000484753 0.0000727639 0.0004921701 0.0000268542 0.0002310492 0.0000930657 0.0000060969 0.0000060705 0.0001283367 0.0000224950 0.0000489515 0.0000315371 0.0000306912 0.0000235863 0.0000097674 0.0001205795 0.0000833711 0.0001926358 0.0001202029 0.0000299082 0.0000288104 0.0000077335 0.0000869338 0.0002829679 0.0000290034 0.0001988759 0.0000834251 0.0000473664 0.0000985348 0.0001043973 0.0001688680 0.0000243514 0.0000128550 0.0001826887 0.0000522898 0.0000013750 0.0000530451 0.0001661624 0.0000600271 0.0000789536 0.0002213812 0.0000634999 0.0000340654 0.0000157342 0.0000085566 0.0000551211 0.0002887657 0.0001531401 0.0000508229 0.0001168575 0.0000163656 0.0000950678 0.0000951051 0.0000264110 0.0003200969 0.0000192193 0.0000905745 0.0000911924 0.0000192295 0.0000292082 0.0000605643 0.0000071554 0.0000864826 0.0000181206 0.0000016294 0.0000080372 0.0000089221 0.0000386301 0.0001855537 0.0000087391 0.0000307643 0.0002616802 0.0001144579 0.0000377443 0.0001250744 0.0000100461 0.0000136885 0.0000040571 0.0000156763 0.0000165884 0.0000396814 0.0000069578 0.0000393341 0.0000273245 0.0001009755 0.0001227675 0.0000460558 0.0000055926 0.0000080649 0.0000275209 0.0000244382 0.0000818400 0.0000441206 0.0000531572 0.0000487017 0.0000603086 0.0000762107 0.0000622030 0.0000973924 0.0000385346 0.0000569001 0.0000138780 0.0001102922 0.0000158135 0.0000253891 0.0001250088 0.0001382454 0.0001232137 0.0000799663 0.0001380819 0.0000155758 0.0000301454 0.0000371629 0.0000323277 0.0000591854 0.0000282985 0.0000085498 0.0000406056 0.0001086524 0.0000464317 0.0000187176 0.0000024014 0.0000395245 0.0000015830 0.0000123726 0.0000048950 0.0000334368 0.0000390931 0.0000604484 0.0000185204 0.0000167100 0.0000083293 0.0000068180 0.0000119963 0.0000223986 0.0000203275 0.0000126895 0.0000104082 0.0000259767 0.0000088342 0.0001698814 0.0000139602 0.0000453952 0.0000111098 0.0000460648 0.0001709473 0.0000241003 0.0001046215 0.0002024514 0.0000361779 0.0000388915 0.0001536080 0.0000027511 0.0000399950 0.0002874981 0.0000075865 0.0000179335 0.0000144365 0.0000430400 0.0000045025 0.0000129082 0.0000079083 0.0000747218 0.0000377529 0.0000593249 0.0000611238 0.0000359076 0.0000600104 0.0000173376 0.0000350520 0.0000002393 0.0000569995 0.0000125364 0.0000176289 0.0000518889 0.0000191376 0.0000530949 0.0000302378 0.0000300100 0.0000204971 0.0000077586 0.0000284088 0.0000114075 0.0000228556 0.0000145079 0.0000044003 0.0000259454 0.0000157439 0.0000057324 0.0000675461 0.0000369886 0.0000020206 0.0000128891 0.0000076910 0.0000005163 0.0000400050 0.0000106915 0.0000494158 0.0000639097 0.0000373567 0.0002481550 0.0000715964 0.0000078693 0.0000104002 0.0000073818 0.0000071212 0.0000117797 0.0000364814 0.0000337192 0.0000538122 0.0000648139 0.0000026838 0.0000081362 0.0000881647 0.0000310395 0.0000607814 0.0000853950 0.0000026424 0.0000074582 0.0000562715 0.0000903080 0.0000005474 0.0000288878 0.0000796010 0.0001168729 0.0003506116 0.0003212970 0.0000395277 0.0000252696 0.0001374385 0.0001622330 0.0000228832 0.0000387086 0.0000069510 0.0000152710 0.0000602968 0.0000175800 0.0000222435 0.0000122851 0.0000312655 0.0000744941 0.0000535176 0.0000057819 0.0000332758 0.0000231234 0.0000207381 0.0000333986 0.0000189207 0.0000230928 0.0000277172 0.0000619643 0.0000030677 0.0000056369 0.0000215931 0.0000016516 0.0000080176 0.0000689871 0.0002010004 0.0001002886 0.0000704471 0.0000618147 0.0000254035 0.0000530270 0.0000844489 0.0000197693 0.0000510388 0.0000227499 0.0001328774 0.0000052307 0.0000218332 0.0000399226 0.0000060766 0.0000131769 0.0000071997 0.0000121046 0.0000693252 0.0000462340 0.0000084826 0.0000061456 0.0000201475 0.0000510357 0.0000427102 0.0000047348 0.0000223163 0.0000264261 0.0000096143 0.0000018403 0.0000133860 0.0000581730 0.0001162471 0.0000070568 0.0000208411 0.0000300704 0.0000082273 0.0000234362 0.0000218194 0.0000727534 0.0000746042 0.0000794165 0.0000091916 0.0000793110 0.0000033424 0.0000340541 0.0000165144 0.0000032322 0.0000092384 0.0000222606 0.0000323827 0.0000314923 0.0000290269 0.0000209633 0.0000060608 0.0000220109 0.0000136573 0.0000218855 0.0000040463 0.0000588268 0.0000080936 0.0000053918 0.0000114251 0.0000607940 0.0000874467 0.0000141782 0.0000075853 0.0000050749 0.0000504471 0.0000601846 0.0000344710 0.0000375701 0.0000593965 0.0000512256 0.0000145643 0.0000059785 0.0000102976 0.0000045684 0.0000063075 0.0000086372 0.0000098002 0.0000055310 0.0000459220 0.0000166792 0.0000076769 0.0000326324 0.0000233843 0.0000007477 0.0000053964 0.0000594792 0.0000461043 0.0000198206 0.0000226290 0.0000418897 0.0000146376 0.0000078986 0.0000069602 0.0000335674 0.0000269920 0.0000106227 0.0000221454 0.0000403886 0.0000195122 0.0000137729 0.0000140250 0.0000066080 0.0000152041 0.0000080363 0.0000100621 0.0000156044 0.0000151624 0.0000045927 0.0000049278 0.0000517335 0.0000115809 0.0000605442 0.0000295671 0.0000315565 0.0000093571 0.0000184863 0.0000045065 0.0000027857 0.0000039602 0.0000650017 0.0000060066 0.0000313247 0.0000110968 0.0000235875 0.0000132256 0.0000245280 0.0001356248
        </DataArray>
        <DataArray type="Float32" Name="contact normal" NumberOfComponents="3" format="ascii">
 0.9747551560 -0.1893148417 -0.1183734619 0.1555745094 0.9312612026 0.3294679719 -0.0006369243 0.6164443535 -0.7873982178 -0.2103070406 0.7157941208 -0.6658901751 0.1103631228 -0.0480299207 -0.9927301284 0.2338411241 -0.1107110154 -0.9659510338 0.5992065226 -0.7720062936 -0.2120326056 -0.3785345279 0.6351392226 -0.6732828374 -0.3288772118 0.6782701536 -0.6571068241 -0.1641725992 -0.9501201833 -0.2651772896 -0.8558113621 0.4668476481 0.2228007766 -0.1400029963 -0.4491059315 0.8824415127 -0.1479990388 -0.4748814336 0.8675159414 -0.1169574643 -0.3830530360 0.9162921604 -0.0083251484 0.0626807017 -0.9979989086 0.0267986215 -0.0943968520 -0.9951738884 -0.8319751527 -0.0603934588 0.5515160699 -0.4684035860 0.3948230781 -0.7903877641 -0.3784747814 -0.4904620742 -0.7849864927 0.4266472715 -0.1496869339 0.8919450249 0.4063601276 -0.1798457778 0.8958386813 -0.6620754152 -0.1481341457 -0.7346512230 0.5876625077 -0.7239376869 0.3613405631 -0.6340898065 -0.2069770244 -0.7450440448 -0.0676093607 -0.3232774810 -0.9438859278 -0.7624910208 0.1937181939 -0.6173173451 0.3124822130 -0.0294264469 0.9494677197 -0.7342367588 -0.5295583915 0.4248108897 -0.7988545679 -0.6010924945 0.0227857940 -0.0013699501 -0.9554466463 0.2951606839 0.3770212669 0.7929128721 0.4786900266 0.3335693442 -0.6196507869 -0.7104677297 0.7209804811 0.5217110766 -0.4560753211 0.7537180581 0.4852892219 -0.4431742998 0.2852059722 0.6836241476 -0.6718002518 -0.4732841470 -0.4351851797 -0.7659085948 0.2186619801 -0.1884342567 -0.9574337937 -0.6235802107 0.7261395481 -0.2896015842 -0.5201695348 0.6631041543 0.5382532263 -0.1223110922 -0.0632331527 -0.9904754238 -0.3277451827 0.7301529234 0.5995496673 -0.7229386248 0.6861784110 0.0807399103 0.4062266620 -0.7683044021 -0.4946597263 0.4403016221 -0.7260606818 -0.5281764554 0.1714136325 0.2531712189 0.9521143316 -0.4363231155 -0.6609521897 0.6105442996 -0.9456347301 -0.3248602151 -0.0155176654 0.6139394203 -0.7892925956 0.0097768501 0.5989305925 -0.8008007745 0.0005146822 0.5472189545 0.8316363467 0.0945113890 0.4998116024 0.7781985125 -0.3802570672 0.0644270849 -0.3623476128 0.9298136148 0.7572561640 -0.0105257428 0.6530331621 0.1054409631 0.2945971098 0.9497866846 -0.1809020711 0.8143274463 -0.5514936545 -0.1033724481 0.6607671049 -0.7434386122 -0.0957095669 0.2005464695 -0.9749978422 -0.2508219846 0.5934680882 0.7647770658 0.4792946246 -0.4879412658 -0.7295135255 0.2611674447 -0.8734866104 0.4108682359 -0.4050257947 0.2950858622 -0.8653776283 -0.5610666750 0.6174398681 -0.5513367351 0.6796846475 -0.6364841334 -0.3645774648 0.1152700906 -0.2602735402 -0.9586294855 0.2785766067 -0.2555811069 -0.9257825727 -0.1151293555 -0.6947393658 0.7099876373 -0.1319868490 -0.1364212761 -0.9818190806 0.1889914060 -0.3259881528 0.9262904365 0.1771369997 -0.3355327446 0.9252244380 -0.3539040439 0.6917229045 -0.6295008746 -0.5815555169 -0.3308921017 0.7431713112 -0.6850129803 -0.6446792830 0.3393314589 -0.3519586179 0.0409991351 -0.9351172131 0.2481265333 0.1400641140 -0.9585485212 0.6234787840 0.3239708537 -0.7115596193 0.9444713072 -0.0566725120 0.3236698569 0.9482902556 0.0855586218 0.3056555470 -0.4734707955 0.6020928079 -0.6428916367 -0.5584128815 0.4656548471 0.6865425093 -0.4312461266 0.6832493589 0.5892343268 0.1343171504 0.8425407096 -0.5216167710 -0.6365650630 -0.7534994567 0.1643882276 0.0926929007 -0.3335346971 0.9381698311 0.0489967145 -0.2190343684 0.9744861556 0.3163069301 0.5396101396 -0.7802376710 0.7737781373 0.4542856392 0.4414656863 0.3336560662 0.5760558266 -0.7462126467 0.2731786626 0.6214747721 -0.7342632538 0.8864808160 0.4479914824 -0.1159973903 -0.3028978823 -0.8435929202 -0.4434003360 -0.2974535197 0.9482576839 0.1110349876 -0.3437136068 0.8246707261 0.4491983416 -0.8803513852 -0.1147573476 -0.4602305832 -0.2751923499 -0.8528873147 -0.4436805145 -0.0722229979 -0.8079356595 -0.5848280163 -0.2014298627 0.9574082279 0.2068707217 -0.5934943076 0.7299765527 0.3389671656 -0.3922054110 -0.5327739427 0.7498845522 0.3396648440 0.5385653173 -0.7710870202 0.3862915978 0.5406384321 -0.7473211406 0.3396500730 0.5385644356 -0.7710941425 0.3396460968 0.5385641981 -0.7710960598 0.1126249164 -0.4601034164 0.8806931784 0.1108319769 -0.4528069478 0.8846932468 -0.0838045089 -0.9413540426 -0.3268476262 0.7067017347 -0.6148222046 -0.3500947228 0.4599556350 -0.3548448979 -0.8139569474 -0.2235078149 0.1352040605 0.9652792957 -0.2231808151 0.1347985073 0.9654116667 -0.2230412719 0.1346258398 0.9654680079 -0.2232278218 0.1348567987 0.9653926576 -0.2225765072 0.1340491378 0.9656554909 -0.2236685050 0.1354033611 0.9652141367 -0.2227695155 0.1342887806 0.9655776853 -0.2224665355 0.1339127801 0.9656997504 -0.1802089216 0.0818521874 0.9802167944 -0.2226750630 0.1341826783 0.9656142217 -0.2226598196 0.1344158292 0.9655853093 -0.2230731223 0.1349952036 0.9654090724 0.1669250913 -0.3145201611 -0.9344587108 -0.2215190042 0.1354750112 0.9656996697 0.2534590169 -0.2169816887 -0.9426969150 0.2505241531 -0.2101603929 -0.9450239457 0.4823441563 -0.3851707812 -0.7867576401 0.7374711409 0.4353333542 0.5163537423 0.4636729168 0.3371315311 -0.8193593577 0.8230588774 -0.5670161205 -0.0326619557 0.2197721964 -0.1326040026 -0.9664969530 0.2253271376 -0.1300546775 -0.9655638052 0.2248738422 -0.1264213653 -0.9661518481 0.2037518110 -0.0979204014 -0.9741133376 0.2245786377 -0.1254487089 -0.9663472755 0.1756578969 -0.7374313476 0.6521804281 0.1958845567 0.1959952882 0.9608408232 -0.0155801646 0.4234318397 -0.9057939807 -0.0707355072 0.3607698916 -0.9299685873 -0.1004564947 0.3256068997 -0.9401535191 -0.0743121850 0.1549468171 -0.9851239430 -0.3376732139 0.8585540726 0.3858260036 0.1560711538 -0.5231893202 0.8378035152 -0.3066349717 -0.9367091659 -0.1689702124 0.9259012709 0.1042732302 -0.3630894241 0.5340544752 0.5979773204 0.5976695925 -0.6750348433 -0.6277336004 -0.3876576933 -0.9195368630 0.3290386633 -0.2149081564 0.0689871671 -0.6885773035 0.7218739972 0.0714521975 -0.6715867631 0.7374725779 0.0633616708 -0.3691994889 0.9271877027 0.4348773454 0.8794784699 -0.1933890261 -0.3197016624 -0.5168035494 -0.7941693386 0.2726894711 0.5234801757 -0.8072229914 -0.0187476945 0.0079268556 0.9997928230 -0.0187575982 0.0079571223 0.9997923968 0.0753924418 -0.0381792194 0.9964227652 0.2195181077 -0.5921845342 -0.7753252723 -0.1204666863 0.3287110161 -0.9367159897 -0.1204798707 0.3287218826 -0.9367104807 0.2194895580 -0.5919965780 -0.7754768762 -0.1204915397 0.3287314997 -0.9367056047 0.1357797873 -0.0261330352 0.9903943224 0.2192791934 -0.5917304898 -0.7757394297 0.2181288632 -0.5917915309 -0.7760171280 -0.3180809600 -0.8153340990 0.4837921144 -0.2059572452 0.1752072358 0.9627481694 -0.8647634917 0.4792087902 -0.1501433944 -0.0545655453 0.3320569493 0.9416797671 -0.6879651734 0.4288418042 -0.5854900743 -0.0387346018 -0.7615573228 -0.6469390039 0.1346909741 -0.2781112468 -0.9510586080 0.6640580859 0.3246308358 -0.6735292711 -0.2386538545 -0.2963236529 0.9247900467 -0.1923026097 -0.3520425134 -0.9160162526 -0.1771635973 -0.3510684131 -0.9194368000 -0.1801672353 -0.3565764275 -0.9167295232 -0.8774163361 0.4309654722 0.2107352246 -0.5001369976 0.4190773055 -0.7577843992 0.5889325000 -0.5446859485 -0.5970558835 0.2174751479 -0.1596855682 -0.9629148869 0.9732606649 0.2296995268 0.0013436960 -0.6193130180 0.5275504073 -0.5814997450 0.9097930076 -0.4077812826 0.0774022531 0.6530835094 0.0527726534 -0.7554448867 0.1091063354 0.9771300823 0.1825174236 -0.6847298230 -0.2364531720 0.6893728795 -0.6894294509 -0.2314229302 0.6863894373 -0.6822136370 -0.2397785269 0.6907176062 -0.6643648991 -0.2351663564 0.7094477188 0.4877490613 -0.4803083721 -0.7289751168 0.7528401002 -0.6492571823 -0.1081521832 0.0332299204 0.4261973225 0.9040196982 -0.6546573682 0.4064218022 0.6373735553 -0.0726633297 -0.4846365684 -0.8716922835 -0.5033504343 -0.6987144434 0.5083664690 0.3390160789 0.2884290679 -0.8954757233 -0.2373873275 0.0128336287 -0.9713303016 -0.2615760602 -0.0587907566 -0.9633906848 0.7522871426 0.2694499962 0.6012160632 0.1439977291 -0.6094737800 0.7796193722 -0.4401242409 0.8365777100 0.3262336398 0.2696940276 0.7976517299 0.5394597754 0.2716261443 0.8386171565 0.4721657576 0.2090909418 0.6355616446 -0.7431973990 -0.3845818620 0.7536673992 -0.5329936611 -0.2919763882 0.6684383711 0.6840613516 -0.2518895195 0.6666775619 0.7014931920 -0.8247833203 0.4462142741 0.3473115262 -0.1772985949 0.9573737830 0.2280365054 0.3002270527 0.5922465158 -0.7477351011 0.2806557468 0.5827388193 -0.7626583903 -0.2984426309 0.4463298151 -0.8436359951 -0.3000446399 0.4872086387 -0.8201225253 -0.1923651238 -0.5414377777 0.8184380196 -0.1957688128 -0.5312656221 0.8242762951 -0.4403263966 0.6284699361 -0.6412005957 0.0843762485 0.9896459414 0.1161101178 -0.6559063141 -0.6631169210 0.3606422829 -0.6477186318 -0.7391515132 -0.1847041270 0.6216466690 -0.6940036574 -0.3632001411 -0.4377083843 0.6553989646 -0.6155189416 -0.1216642570 0.3523870447 -0.9279122692 -0.2329613177 0.2568591105 -0.9379511831 -0.4786225977 0.7628192042 -0.4347726655 -0.1737021252 0.6567030207 0.7338724101 -0.7734245266 -0.6004230447 -0.2032404218 -0.7640777984 -0.6230884806 -0.1671701629 0.2986761230 0.2188552733 -0.9289213868 0.2974134152 0.2166324075 -0.9298471167 -0.2439381415 0.3579325795 -0.9013203934 0.3978152270 0.4542159013 -0.7971392351 0.3423490718 0.4963732339 -0.7977535495 -0.3679619264 0.7958038045 0.4809369246 -0.3649434610 0.8040831748 0.4693255994 -0.8854927565 0.3731738765 0.2768462320 -0.8869883877 0.3678067051 0.2792307789 0.0322041760 0.0956239273 -0.9948964547 0.0299042400 0.0983255363 -0.9947048936 0.0681939861 0.0531644966 -0.9962545441 0.0336708191 0.0939394210 -0.9950083724 0.0706245586 0.0502733958 -0.9962352922 0.0315004356 0.0964967266 -0.9948347121 0.0697329978 0.0513366884 -0.9962438725 -0.9735276736 0.2172839995 0.0709332939 -0.4238726820 -0.7489780188 -0.5092777993 0.4890296067 -0.6031941523 0.6300848025 0.0011451469 0.0684565135 -0.9976534440 0.1759361752 -0.2961186615 -0.9388078614 0.5084308181 -0.3526576125 -0.7855766745 0.1803346325 -0.9835924827 -0.0050247756 0.9711433986 -0.0971736655 -0.2178021536 -0.2651232058 -0.9614109088 0.0734761876 -0.2908632849 -0.5680925246 0.7698502666 0.6003660867 -0.1235719872 -0.7901205768 0.4877575898 0.4212435784 0.7646217243 -0.0680043458 -0.9155797035 -0.3963448189 -0.1219221193 0.3803887311 -0.9167548255 0.3198500967 -0.2090765505 0.9241119584 -0.6040774371 -0.0347604742 -0.7961671680 -0.2391607478 -0.6359412234 0.7337444358 -0.2315499899 -0.6370172057 0.7352507612 0.8045626087 -0.5925192175 0.0399998194 0.5654681063 -0.0073225811 0.8247376556 0.0996596337 0.7560943374 0.6468302021 -0.1534769030 0.6421886538 -0.7510250151 0.7465896969 0.1815147789 -0.6400439122 0.1414886469 -0.5278155890 -0.8374912936 -0.6001546983 -0.5560306811 -0.5750167126 -0.2655280625 0.5367713382 -0.8008566529 -0.8479730326 -0.3158350352 -0.4256641475 -0.7710799068 -0.1248550950 -0.6243772759 0.3590315109 0.2544342213 -0.8979752787 0.3518003499 0.2536807753 -0.9010452697 0.3589464201 0.2544593369 -0.8980021789 0.4646797925 -0.0593411108 0.8834881567 -0.0937016315 -0.1858339961 -0.9781031286 -0.0848817893 -0.1981142693 -0.9764967067 -0.1139170387 -0.6161851700 -0.7793194111 0.0885998000 0.1653774178 0.9822425287 0.7157447712 -0.2994616943 -0.6308978651 0.8781518714 0.0218785766 0.4778813856 0.4081585548 0.9091500127 -0.0827819335 0.9198098010 -0.1472149419 -0.3637000011 0.4277935185 0.5480246019 -0.7187918622 0.4394586555 0.5374393855 -0.7197464811 -0.0485467887 -0.6506535355 0.7578213417 -0.0481450586 -0.6506582777 0.7578428987 -0.0497875644 -0.6508237343 0.7575946576 -0.0495896546 -0.6508272553 0.7576046132 -0.0496818645 -0.6508521433 0.7575771907 0.3639479576 -0.0156270981 -0.9312881820 0.9432771341 0.2503039190 -0.2181196835 -0.4285766653 0.5269020607 0.7339593043 -0.4289676916 0.5264764271 0.7340363011 -0.4345310756 0.5250729566 0.7317657648 -0.7262254402 0.3025840836 0.6172839561 -0.0362794086 0.2405688235 -0.9699538369 0.0041121301 0.2892684118 -0.9572391949 0.0163353138 0.3096375549 -0.9507143326 0.2013695129 0.3973489194 -0.8953011535 0.1078189997 0.8494452868 -0.5165440620 -0.3692997706 -0.1432366696 -0.9182052798 -0.2699979552 0.0784230161 -0.9596618856 -0.3530756711 -0.2886958401 0.8899394824 -0.3215941188 -0.9253118186 -0.2009359628 0.2932610647 -0.5837319722 -0.7571360066 -0.0298855366 -0.6451740252 -0.7634509361 0.2668484306 0.3719979641 -0.8890497341 0.3191468265 0.1144509498 -0.9407689851 -0.3964216729 0.0135365745 -0.9179687459 -0.3971710169 0.0123288981 -0.9176618013 -0.3732145940 0.0502577196 -0.9263827656 -0.3734321042 0.0499663846 -0.9263108679 0.1842434566 -0.3894841475 0.9024170031 -0.2693636179 0.0358337390 -0.9623716457 -0.2119819978 0.0192434318 -0.9770840920 -0.0860968032 -0.1622315701 0.9829894497 0.6306172720 -0.6960676725 -0.3432370196 0.6343471271 -0.6934114807 -0.3417370932 -0.2452333959 0.8945680878 -0.3736422323 -0.4035272221 0.9128074743 0.0628354673 -0.5503001146 -0.7400327182 0.3866799191 0.1735311607 0.3615625225 -0.9160564822 0.1744387316 0.3463886872 -0.9217298988 0.3688351047 -0.7351872705 -0.5687357407 -0.4895688810 -0.5444972764 -0.6810616908 0.0874882792 0.4826745868 0.8714189832 0.0729874558 0.4577584112 0.8860756560 0.2545698800 0.7718885325 -0.5825652492 0.2177878066 0.8018518977 -0.5564189119 -0.1614270512 -0.9838718914 0.0770545811 -0.0928318638 0.9011122742 0.4235314797 -0.4452292233 -0.8639931857 -0.2351312692 0.7007692514 -0.1018091027 0.7060859458 0.7781009055 -0.0149251964 0.6279619569 -0.1273728455 -0.6337193459 0.7630045536 -0.1228603892 -0.6298760185 0.7669168965 -0.1273416135 -0.6337444041 0.7629889539 -0.1228301997 -0.6299754066 0.7668400936 -0.1228872411 -0.6300233265 0.7667915845 -0.0929861716 -0.6040553035 0.7914990602 -0.1219851724 -0.6310560413 0.7660860855 -0.0935283367 -0.6037217324 0.7916896614 -0.0934069272 -0.6036262763 0.7917767769 -0.0310406308 0.6017006915 0.7981182601 0.5127575803 0.8092023886 -0.2868294931 0.9208304848 0.2509967758 0.2984490522 -0.0789390994 0.2649875131 -0.9610152114 -0.0745054339 0.2682513815 -0.9604635009 -0.0701819848 0.2713608203 -0.9599155141 0.3275292862 0.4936510369 -0.8056259805 0.6858865417 0.7189529475 0.1125447073 -0.1523935309 -0.6449726322 0.7488568057 -0.1524416673 -0.6449506096 0.7488659755 -0.1524551300 -0.6449482663 0.7488652530 -0.1524070277 -0.6449537841 0.7488702920 -0.1524376629 -0.6449502779 0.7488670763 -0.1524576327 -0.6449479564 0.7488650104 -0.1524543817 -0.6449483308 0.7488653497 -0.1523878709 -0.6449559901 0.7488722906 -0.1524029029 -0.6449542591 0.7488707224 0.0626362432 0.755246633