<?xml version="1.0"?>
<VTKFile type="UnstructuredGrid" version="0.1" byte_order="LittleEndian">
  <UnstructuredGrid>
    <FieldData>
      <DataArray type="Float32" Name="TIME"  NumberOfTuples="1" format="ascii"> 5.1500000000 </DataArray>
      <DataArray type="Int32"   Name="STEP"  NumberOfTuples="1" format="ascii"> 515000 </DataArray>
    </FieldData>
    <Piece NumberOfPoints="399" NumberOfCells="399">
      <Points>
        <DataArray type="Float32" NumberOfComponents="3" format="ascii">
 0.4248653241 0.2068253486 0.0759429509 0.5299832373 0.1286326988 0.0400907639 0.5050733389 0.1472906659 0.1825917040 0.6403307357 0.1082662386 0.1124597353 0.5396124226 0.3646966384 0.2040006916 0.5528625352 0.3591024261 0.2072266211 0.5678908414 0.4472843444 0.1939269664 0.7522014954 0.1787390556 0.1457377700 0.7585132722 0.1855915731 0.1501548209 0.6781370766 0.4551489544 0.1694660033 0.8496088286 0.2321592269 0.1150671920 0.7816290818 0.3733977312 0.0369726804 0.7953317194 0.3703147586 0.0373492106 0.8168259507 0.3857435391 0.0431750014 0.8042875605 0.3963506265 0.2240356058 0.8177013804 0.3880443326 0.2261940853 0.8970056358 0.3686629589 0.1723159087 0.7489578976 0.3245511700 0.6726895587 0.7715939341 0.2992914990 0.6582639706 0.7860265091 0.3638993512 0.5621522481 0.8677399255 0.6052375707 0.5111381265 0.9118155358 0.5556477193 0.5587197203 0.8933346524 0.6065768205 0.4947004969 0.9262233712 0.5446450613 0.5458336121 0.9417329040 0.3093609467 0.5254672977 0.9349242031 0.3343193127 0.5344039802 0.9466583401 0.4740606086 0.4508196027 0.2426831632 0.7997984296 0.0414070376 0.2550042999 0.8173393816 0.0914574792 0.0745409274 0.9091236915 0.1097904150 0.1543236930 0.7223196019 0.0815085665 0.0388482864 0.8885768049 0.1662305679 0.0554833900 0.8047839633 0.1553462390 0.0622455364 0.7985058690 0.1588805191 0.1716658682 0.7198411851 0.1453823148 0.1846704640 0.8263778290 0.1958309980 0.5696631063 0.7614162138 0.2455273894 0.6836962594 0.7584633789 0.2617671488 0.6518275249 0.7389198858 0.1620808394 0.7064503671 0.8129147865 0.2796416030 0.6573957291 0.7424564101 0.1621261100 0.6559154547 0.7439888023 0.1560628819 0.6050548780 0.8504650440 0.2446687921 0.6094917609 0.8548461677 0.2417822681 0.5207964953 0.7623145682 0.0984627525 0.7326511270 0.8581095766 0.2193669794 0.7273900979 0.8568456667 0.2066723135 0.5647767080 0.8549311033 0.1613299801 0.5655443751 0.8555398178 0.1539493054 0.1730878178 0.4807041015 0.3236706313 0.1676976911 0.4846859471 0.4415928455 0.1372092371 0.6603892315 0.2434471935 0.0843619832 0.6890418590 0.2636712104 0.1610016364 0.6613730769 0.2414228965 0.2576847172 0.4522146285 0.3447865552 0.2908207474 0.4616811551 0.4187218334 0.2909884788 0.5655094827 0.4523287028 0.3086335152 0.4589965803 0.2813320669 0.1182086503 0.7733039337 0.4080898152 0.2713209820 0.7854265304 0.2555509991 0.4240758514 0.5343444917 0.4164818947 0.4308565857 0.5455605097 0.4205665767 0.2460006901 0.8876088247 0.3715553431 0.3711233374 0.8402719717 0.4486934459 0.3884541293 0.8571712013 0.4473815123 0.4440474649 0.9114116524 0.2749313030 0.5616929020 0.7792378012 0.4616570450 0.7554638759 0.3393616590 0.5253681222 0.7491429808 0.3251158800 0.5221870500 0.7310387716 0.1923229132 0.5211121363 0.6605265861 0.0750019484 0.2089066172 0.6490921630 0.1078240725 0.2421729328 0.6082327395 0.1071849546 0.3161805467 0.5368085054 0.0942200222 0.3297717192 0.6497671255 0.8867020451 0.4452709404 0.6558285291 0.9007449525 0.3525090183 0.6572079426 0.9097055863 0.3464139231 0.7437354585 0.9446356319 0.5283422343 0.6975294083 0.9102989952 0.3310050766 0.7118970116 0.2412324760 0.2823340725 0.6923343679 0.1618252175 0.4376720018 0.7639626281 0.3793132369 0.3440298469 0.7707360952 0.3872255103 0.3523737658 0.5690856442 0.3189433059 0.3113891954 0.5335518009 0.2357773466 0.4478716769 0.4819230726 0.2672511435 0.3471242734 0.4709351135 0.3273643415 0.5039589681 0.4582440504 0.3355682699 0.5055506491 0.3861282199 0.4139790689 0.4441329942 0.5795576969 0.5972596475 0.5628795926 0.1272839515 0.2954923459 0.0794080964 0.1210211604 0.2920258094 0.0845417481 0.1781401775 0.3772361444 0.0528338754 0.1491837998 0.4388045272 0.0568121519 0.0950511300 0.4146555537 0.1045546989 0.2077568501 0.4386274445 0.0527657150 0.1964207827 0.4344285566 0.0567131103 0.2718642822 0.5419338349 0.0599525940 0.1116349357 0.4730197255 0.1348033737 0.1123437338 0.4827925533 0.1420337272 0.1047361169 0.4920113354 0.1450388145 0.0995439797 0.5073283053 0.1534457963 0.1196633969 0.6091644794 0.0768632809 0.1243073513 0.6141215695 0.0785440105 0.0731065480 0.6660886626 0.2039458479 0.0764847602 0.6738818662 0.1942223257 0.1368993623 0.3952855471 0.2410305145 0.2422135453 0.3041291096 0.2229845706 0.2365969146 0.2958151498 0.2228487685 0.2487071762 0.3044899572 0.2244121245 0.2293358552 0.2902093152 0.2219683911 0.2433835087 0.2948294264 0.2245375929 0.2197448090 0.2869283671 0.2202323576 0.2548635547 0.3066655884 0.2255148708 0.2368437363 0.2880812915 0.2239872760 0.2496216520 0.2953275070 0.2258878572 0.2609602925 0.3107896757 0.2263361812 0.2673069697 0.3172671635 0.2268947845 0.2743128874 0.3269066674 0.2271856904 0.0603283128 0.3238590380 0.2405525774 0.2818535393 0.3248941673 0.2291696011 0.2734197244 0.3270487967 0.3139747212 0.2819441054 0.3344277147 0.3145357829 0.0744064290 0.2508623991 0.2704874189 0.0724369675 0.1488439506 0.2300770935 0.1130170206 0.0685981443 0.2994127827 0.1289112209 0.0610857915 0.3107433690 0.2422537755 0.1318700847 0.3407274437 0.2508583032 0.1370574563 0.3419973774 0.2667441592 0.1556162349 0.3433603189 0.2741732856 0.1652456604 0.3438922115 0.2824444139 0.1696901615 0.3451598910 0.8679175075 0.1866464509 0.4388065315 0.8336801537 0.1057841691 0.4125786471 0.7587819545 0.1533915406 0.5977292661 0.7548273911 0.1422547537 0.5935161904 0.7470127242 0.1331154085 0.5912830001 0.2973192646 0.2801238706 0.5031616232 0.2898209264 0.2700270058 0.4140875760 0.2535001245 0.3450425759 0.3698634866 0.3102818196 0.3803418671 0.4286201667 0.6312888411 0.7388035369 0.5144381753 0.6934333807 0.6467631915 0.3835486734 0.7179965090 0.8411238738 0.5228716957 0.7601123770 0.7119199053 0.4431576629 0.7150680263 0.7763955681 0.3773376680 0.7224919252 0.7765644322 0.3764741969 0.7217489354 0.7830363845 0.3798924117 0.5481883467 0.5178812142 0.2034166129 0.6016772860 0.5231819649 0.2544421708 0.6024651740 0.5427590364 0.2596856824 0.6200440050 0.5473505867 0.0836204988 0.6262682487 0.5623856392 0.0836988684 0.6399071924 0.5592327392 0.0832589040 0.7413569592 0.6640249543 0.2510472664 0.8187178286 0.4748239153 0.2427189779 0.8265620518 0.4850383583 0.2453614930 0.7524096593 0.6663460738 0.2524261717 0.8342697148 0.4949642453 0.2478054358 0.7588459278 0.7526341113 0.1137499219 0.7644309236 0.6690105929 0.2538323373 0.7782261868 0.6723034066 0.2552958024 0.8026220266 0.7665643046 0.1615339951 0.8794314468 0.6238431160 0.0942663743 0.9217433606 0.5592536345 0.1912945249 0.8981107711 0.6354672950 0.0942528242 0.9265944163 0.6781196593 0.2684890748 0.9125154368 0.7262493164 0.2334569762 0.9396909285 0.6711486137 0.2630040687 0.3658526184 0.5765587946 0.0833475601 0.4803350874 0.7324424147 0.0279602236 0.4430330124 0.6659638543 0.0961071619 0.4495917737 0.6639639530 0.0952667379 0.4523357887 0.6598791905 0.0965932377 0.3894149051 0.1711525980 0.4216738145 0.3343303834 0.0835969096 0.4717569528 0.1711627148 0.1840701024 0.3885514912 0.2163983630 0.1306972080 0.4587595141 0.1403168722 0.0872425698 0.4244188411 0.9285704144 0.4500576069 0.5810542415 0.2542664918 0.1549635811 0.0768234569 0.2905347464 0.1241726280 0.1289600190 0.3212506301 0.0796913675 0.1134322600 0.3626135091 0.1664948909 0.0989906613 0.3618115432 0.1720328437 0.1001070941 0.3650572146 0.1699175067 0.1024748602 0.3680818316 0.1736261543 0.1065972467 0.3291200176 0.2036820769 0.1572352711 0.3370101125 0.2091292735 0.1616356957 0.0617467576 0.1503420042 0.5057998973 0.1851545294 0.1663334568 0.5386190209 0.1499010833 0.2658902456 0.5712993668 0.1483449681 0.2522239797 0.4787907666 0.0408594807 0.9382737039 0.1632798698 0.1579122112 0.9508840642 0.1726203154 0.1685812953 0.9468864549 0.1683301885 0.4623076272 0.4848411691 0.1661080830 0.4577480484 0.4752232541 0.1662387499 0.5258204485 0.3954502047 0.2669790737 0.8807305855 0.5610005486 0.0484159748 0.8724848942 0.5657490363 0.0455653218 0.8788722368 0.5639571077 0.0436099562 0.9528859217 0.5564838424 0.0824624357 0.0848625899 0.9509148061 0.2972595129 0.0909317940 0.9527346139 0.2984105320 0.1709233860 0.9291514133 0.3642659522 0.7712013112 0.0774325410 0.2849991003 0.7320445081 0.0975391245 0.3049635300 0.7245536188 0.0995461490 0.3031239959 0.8351613171 0.1252679159 0.3223785103 0.8416794701 0.1387116084 0.3278999341 0.7707172444 0.1908860053 0.2038468909 0.7747344138 0.1947190124 0.2066773966 0.3426284249 0.1902178413 0.5344582864 0.3550236839 0.1906347289 0.5362020008 0.4140004720 0.2829446426 0.5664143296 0.9549016147 0.6061794804 0.3610205936 0.8663834764 0.6117986739 0.4001128593 0.8999174991 0.4790676902 0.3659223032 0.9022704840 0.4738060965 0.3628363134 0.8960227548 0.4718838511 0.3635568913 0.9027217717 0.3807538675 0.2926233335 0.8058037811 0.0773924462 0.5900189357 0.3432513823 0.9113997882 0.0686959311 0.3482567200 0.9041870029 0.0728549288 0.2973775749 0.8399043218 0.0897858157 0.2988439994 0.8343473427 0.0890977267 0.8006526324 0.6605804496 0.3595347317 0.6844028002 0.6155008806 0.3399599509 0.6751678599 0.6201204567 0.3384223798 0.1505755254 0.9040897574 0.4534406056 0.1568609084 0.9069187250 0.4543829675 0.1183443212 0.9135208217 0.2299883633 0.1206155947 0.9131855132 0.2376249493 0.2538574424 0.3186007246 0.1147666308 0.2556202278 0.3240390770 0.1154068278 0.2607362646 0.3190392587 0.1151262200 0.2621688865 0.3245774467 0.1156874823 0.2673284505 0.3190366608 0.1154434304 0.2631778498 0.3301136154 0.1161662889 0.2685363984 0.3247192509 0.1158620097 0.3468120883 0.2670682470 0.0577854505 0.2798045969 0.4118686571 0.0597693847 0.1971449365 0.4195477469
[...]
      <PointData Scalars="overlap">
        <DataArray type="Float32" Name="overlap" format="ascii">
 0.0002254238 0.0000175786 0.0002058237 0.0000271842 0.0000865618 0.0000332507 0.0000068196 0.0000516937 0.0002478941 0.0002507736 0.0001091213 0.0000485857 0.0000728700 0.0004922978 0.0000269865 0.0002311745 0.0000930747 0.0000060794 0.0000060858 0.0001282998 0.0000225201 0.0000490687 0.0000314201 0.0000305183 0.0000236326 0.0000097429 0.0001206584 0.0000833910 0.0001926543 0.0001201450 0.0000299803 0.0000288289 0.0000077206 0.0000869492 0.0002829887 0.0000289440 0.0001992709 0.0000834891 0.0000472804 0.0000985011 0.0001042936 0.0001687700 0.0000242439 0.0000127995 0.0001830189 0.0000523956 0.0000014116 0.0000530373 0.0001661964 0.0000601324 0.0000790289 0.0002214323 0.0000634887 0.0000341007 0.0000158386 0.0000084722 0.0000554356 0.0002888755 0.0001530266 0.0000509368 0.0001170856 0.0000166313 0.0000949435 0.0000952989 0.0000262190 0.0003201532 0.0000193602 0.0000905900 0.0000909720 0.0000192344 0.0000291467 0.0000606601 0.0000071911 0.0000864584 0.0000182000 0.0000016403 0.0000080667 0.0000088832 0.0000386304 0.0001858077 0.0000087628 0.0000307457 0.0002617784 0.0001146965 0.0000375963 0.0001252286 0.0000100261 0.0000137075 0.0000041036 0.0000157543 0.0000165372 0.0000396385 0.0000070421 0.0000394875 0.0000273019 0.0001011137 0.0001228652 0.0000460836 0.0000056182 0.0000080819 0.0000275600 0.0000244862 0.0000820204 0.0000443112 0.0000530029 0.0000486395 0.0000602924 0.0000762246 0.0000621926 0.0000974192 0.0000385013 0.0000569009 0.0000138216 0.0001103345 0.0000157905 0.0000254038 0.0001250696 0.0001383289 0.0001233260 0.0000799827 0.0001382065 0.0000156740 0.0000302324 0.0000371870 0.0000324594 0.0000592049 0.0000283290 0.0000085709 0.0000406236 0.0001086591 0.0000464357 0.0000187158 0.0000024229 0.0000395851 0.0000015890 0.0000123648 0.0000048956 0.0000334705 0.0000390481 0.0000604832 0.0000185353 0.0000168010 0.0000082413 0.0000068018 0.0000118795 0.0000224154 0.0000204322 0.0000127735 0.0000104086 0.0000259269 0.0000088823 0.0001699509 0.0000140308 0.0000454441 0.0000110938 0.0000460835 0.0001709585 0.0000240937 0.0001046255 0.0002024139 0.0000361817 0.0000389073 0.0001535239 0.0000028856 0.0000398756 0.0002876027 0.0000076105 0.0000179629 0.0000144510 0.0000430944 0.0000044867 0.0000129807 0.0000079539 0.0000747563 0.0000377361 0.0000594054 0.0000611837 0.0000359068 0.0000601593 0.0000172890 0.0000352044 0.0000001853 0.0000570326 0.0000125393 0.0000175865 0.0000518787 0.0000191397 0.0000528900 0.0000303048 0.0000299832 0.0000204856 0.0000077779 0.0000284714 0.0000113781 0.0000228881 0.0000145675 0.0000044357 0.0000259572 0.0000157795 0.0000057046 0.0000675182 0.0000369187 0.0000020516 0.0000127998 0.0000077538 0.0000004294 0.0000400468 0.0000106546 0.0000493785 0.0000639430 0.0000373999 0.0002481732 0.0000716225 0.0000078696 0.0000103955 0.0000073287 0.0000071204 0.0000117853 0.0000365784 0.0000338007 0.0000538454 0.0000648429 0.0000026872 0.0000081422 0.0000882170 0.0000310339 0.0000607663 0.0000854444 0.0000025874 0.0000074693 0.0000560994 0.0000902426 0.0000005515 0.0000288682 0.0000796584 0.0001169463 0.0003506783 0.0003213842 0.0000396075 0.0000253713 0.0001375350 0.0001622640 0.0000229345 0.0000387912 0.0000069740 0.0000152335 0.0000603193 0.0000176299 0.0000221321 0.0000122479 0.0000312265 0.0000745106 0.0000535315 0.0000058107 0.0000331778 0.0000231301 0.0000207711 0.0000334488 0.0000189602 0.0000231540 0.0000276434 0.0000619548 0.0000031100 0.0000056583 0.0000215791 0.0000015047 0.0000080920 0.0000689913 0.0002010443 0.0001003583 0.0000704895 0.0000618141 0.0000254603 0.0000531169 0.0000845138 0.0000197692 0.0000509612 0.0000228179 0.0001329240 0.0000052786 0.0000218553 0.0000399196 0.0000060972 0.0000133486 0.0000073085 0.0000121703 0.0000692975 0.0000460683 0.0000085550 0.0000062014 0.0000203194 0.0000510117 0.0000424687 0.0000045848 0.0000223312 0.0000264420 0.0000096376 0.0000018736 0.0000133701 0.0000581706 0.0001162896 0.0000070216 0.0000208046 0.0000300707 0.0000081970 0.0000234311 0.0000218719 0.0000728247 0.0000745536 0.0000794608 0.0000091230 0.0000792432 0.0000034018 0.0000339751 0.0000164491 0.0000033893 0.0000091210 0.0000222626 0.0000323737 0.0000314705 0.0000290342 0.0000209644 0.0000060507 0.0000219983 0.0000136715 0.0000218642 0.0000040506 0.0000588641 0.0000080965 0.0000053541 0.0000115581 0.0000607479 0.0000874979 0.0000141749 0.0000075312 0.0000051033 0.0000504260 0.0000601958 0.0000344340 0.0000376129 0.0000593906 0.0000512505 0.0000146366 0.0000060061 0.0000104010 0.0000044975 0.0000064832 0.0000085444 0.0000098061 0.0000055271 0.0000459274 0.0000166862 0.0000076855 0.0000326536 0.0000233946 0.0000007658 0.0000054125 0.0000594915 0.0000461193 0.0000197963 0.0000226758 0.0000419151 0.0000146732 0.0000079657 0.0000069505 0.0000335254 0.0000269885 0.0000106057 0.0000221707 0.0000403835 0.0000195032 0.0000138257 0.0000139711 0.0000066169 0.0000152004 0.0000080469 0.0000100800 0.0000156562 0.0000150475 0.0000046049 0.0000049398 0.0000517317 0.0000116114 0.0000606691 0.0000295768 0.0000317119 0.0000091448 0.0000185971 0.0000045575 0.0000027587 0.0000039362 0.0000650731 0.0000061003 0.0000313497 0.0000109454 0.0000235904 0.0000131546 0.0000245415 0.0001356831
        </DataArray>
        <DataArray type="Float32" Name="contact normal" NumberOfComponents="3" format="ascii">
 0.9747549203 -0.1893168593 -0.1183721767 0.1555796354 0.9312609828 0.3294661727 -0.0006372786 0.6164457957 -0.7873970884 -0.2103087125 0.7157933226 -0.6658905051 0.1103593046 -0.0480262391 -0.9927307310 0.2338371818 -0.1107081180 -0.9659523202 0.5992089686 -0.7720038734 -0.2120345051 -0.3785356798 0.6351393972 -0.6732820250 -0.3288782843 0.6782703805 -0.6571060531 -0.1641724860 -0.9501198266 -0.2651786377 -0.8558114314 0.4668472631 0.2228013168 -0.1400022763 -0.4491046450 0.8824422817 -0.1479981990 -0.4748798449 0.8675169543 -0.1169569720 -0.3830522722 0.9162925425 -0.0083253959 0.0626830974 -0.9979987561 0.0267990766 -0.0943945425 -0.9951740952 -0.8319758864 -0.0603931442 0.5515149976 -0.4684021071 0.3948268113 -0.7903867757 -0.3784748779 -0.4904574930 -0.7849893085 0.4266675204 -0.1496788255 0.8919366997 0.4063628748 -0.1798434956 0.8958378933 -0.6620710072 -0.1481331663 -0.7346553930 0.5876592213 -0.7239400768 0.3613411197 -0.6340851421 -0.2069758812 -0.7450483321 -0.0676123721 -0.3232720562 -0.9438875700 -0.7624904157 0.1937215054 -0.6173170533 0.3124877938 -0.0294224440 0.9494660070 -0.7342352912 -0.5295601225 0.4248112685 -0.7988522238 -0.6010955393 0.0227876548 -0.0013705282 -0.9554463958 0.2951614922 0.3770204830 0.7929115230 0.4786928787 0.3335721870 -0.6196490818 -0.7104678821 0.7209795418 0.5217121796 -0.4560755441 0.7537172947 0.4852902417 -0.4431744814 0.2852105603 0.6836271579 -0.6717952406 -0.4732845873 -0.4351846800 -0.7659086066 0.2186556099 -0.1884270292 -0.9574366710 -0.6235805268 0.7261394276 -0.2896012057 -0.5201701218 0.6631038360 0.5382530512 -0.1223055734 -0.0632344807 -0.9904760205 -0.3277454321 0.7301530470 0.5995493805 -0.7229385435 0.6861785400 0.0807395414 0.4062244151 -0.7683076828 -0.4946564758 0.4403002587 -0.7260639568 -0.5281730898 0.1714113008 0.2531725836 0.9521143885 -0.4363227061 -0.6609538661 0.6105427774 -0.9456345234 -0.3248608229 -0.0155175374 0.6139381994 -0.7892935040 0.0097801781 0.5989296648 -0.8008014661 0.0005182692 0.5472194056 0.8316365986 0.0945065603 0.4998132791 0.7781953652 -0.3802613045 0.0644274026 -0.3623465357 0.9298140125 0.7572566533 -0.0105241552 0.6530326203 0.1054409456 0.2946039588 0.9497845621 -0.1808985933 0.8143220858 -0.5515027104 -0.1033732927 0.6607671021 -0.7434384972 -0.0957041237 0.2005424986 -0.9749991933 -0.2508209745 0.5934709327 0.7647751897 0.4793046373 -0.4879269862 -0.7295164979 0.2611689202 -0.8734889684 0.4108622850 -0.4050218975 0.2950857367 -0.8653794951 -0.5610633492 0.6174394759 -0.5513405588 0.6796899658 -0.6364777465 -0.3645787001 0.1152684577 -0.2602651725 -0.9586319537 0.2785749103 -0.2555738056 -0.9257850989 -0.1151278540 -0.6947408664 0.7099864124 -0.1319870941 -0.1364132752 -0.9818201594 0.1889897877 -0.3259873749 0.9262910404 0.1771354647 -0.3355318868 0.9252250429 -0.3539121387 0.6917208549 -0.6294985758 -0.5815552067 -0.3308901348 0.7431724297 -0.6850139982 -0.6446772700 0.3393332283 -0.3519572513 0.0410005623 -0.9351176649 0.2481341034 0.1400624287 -0.9585468078 0.6234735469 0.3239795438 -0.7115602515 0.9444705196 -0.0566730661 0.3236720580 0.9482897687 0.0855579815 0.3056572367 -0.4734691802 0.6020901871 -0.6428952808 -0.5584169154 0.4656551779 0.6865390039 -0.4312470513 0.6832491899 0.5892338459 0.1343175465 0.8425392102 -0.5216190910 -0.6365648039 -0.7535008356 0.1643829101 0.0926932764 -0.3335350834 0.9381696566 0.0489952840 -0.2190317113 0.9744868247 0.3163051927 0.5396063965 -0.7802409640 0.7737787633 0.4542853767 0.4414648593 0.3336606894 0.5760539399 -0.7462120360 0.2731831831 0.6214733165 -0.7342628040 0.8864811926 0.4479898594 -0.1160007803 -0.3028771429 -0.8435951566 -0.4434102481 -0.2974540797 0.9482578201 0.1110323250 -0.3437142944 0.8246723455 0.4491948423 -0.8803497989 -0.1147574733 -0.4602335862 -0.2751901788 -0.8528881113 -0.4436803298 -0.0722200342 -0.8079356269 -0.5848284274 -0.2014305330 0.9574076928 0.2068725458 -0.5934955412 0.7299753131 0.3389676751 -0.3922064141 -0.5327747039 0.7498834867 0.3396699781 0.5385650223 -0.7710849647 0.3862965714 0.5406380843 -0.7473188214 0.3396552079 0.5385641406 -0.7710920867 0.3396512322 0.5385639032 -0.7710940038 0.1126263603 -0.4601045458 0.8806924037 0.1108334112 -0.4528080713 0.8846924921 -0.0838025382 -0.9413534972 -0.3268497022 0.7066999724 -0.6148230559 -0.3500967852 0.4599525174 -0.3548447253 -0.8139587844 -0.2235089993 0.1352043860 0.9652789759 -0.2231820002 0.1347988329 0.9654113473 -0.2230424567 0.1346261646 0.9654676889 -0.2232290072 0.1348571247 0.9653923380 -0.2225776930 0.1340494628 0.9656551725 -0.2236696901 0.1354036878 0.9652138162 -0.2227707005 0.1342891050 0.9655773668 -0.2224677218 0.1339131053 0.9656994320 -0.1802101629 0.0818524812 0.9802165416 -0.2226762479 0.1341830023 0.9656139034 -0.2226610034 0.1344161524 0.9655849914 -0.2230743051 0.1349955266 0.9654087540 0.1669261552 -0.3145200912 -0.9344585443 -0.2215201802 0.1354753263 0.9656993558 0.2534599965 -0.2169843676 -0.9426960350 0.2505251548 -0.2101630876 -0.9450230809 0.4823445278 -0.3851713492 -0.7867571342 0.7374708631 0.4353344263 0.5163532351 0.4636692431 0.3371322322 -0.8193611481 0.8230609362 -0.5670131474 -0.0326616909 0.2197713508 -0.1326054882 -0.9664969415 0.2253262798 -0.1300561707 -0.9655638043 0.2248729768 -0.1264228439 -0.9661518560 0.2037509977 -0.0979218339 -0.9741133637 0.2245777643 -0.1254501745 -0.9663472883 0.1756597342 -0.7374325207 0.6521786069 0.1958896871 0.1959950122 0.9608398335 -0.0155839103 0.4234297826 -0.9057948780 -0.0707392697 0.3607677461 -0.9299691334 -0.1004602610 0.3256047059 -0.9401538765 -0.0743180974 0.1549470214 -0.9851234648 -0.3376703899 0.8585544504 0.3858276343 0.1560690955 -0.5231877149 0.8378049012 -0.3066379013 -0.9367083647 -0.1689693375 0.9259127074 0.1042800759 -0.3630582930 0.5340538114 0.5979775963 0.5976699097 -0.6750302996 -0.6277398994 -0.3876554053 -0.9195300819 0.3290507351 -0.2149186873 0.0689833288 -0.6885758536 0.7218757471 0.0714481539 -0.6715849153 0.7374746523 0.0633567421 -0.3691974348 0.9271888574 0.4348752006 0.8794793284 -0.1933899451 -0.3197020026 -0.5168076475 -0.7941665348 0.2726940957 0.5234770864 -0.8072234326 -0.0187461749 0.0079265134 0.9997928542 -0.0187560793 0.0079567805 0.9997924280 0.0753938548 -0.0381797827 0.9964226367 0.2195171519 -0.5921851548 -0.7753250689 -0.1204670299 0.3287114386 -0.9367157973 -0.1204802140 0.3287223047 -0.9367102884 0.2194886024 -0.5919972033 -0.7754766694 -0.1204918827 0.3287319216 -0.9367054126 0.1357708180 -0.0261316504 0.9903955885 0.2192782372 -0.5917311209 -0.7757392186 0.2181279043 -0.5917921722 -0.7760169085 -0.3180886976 -0.8153379041 0.4837806141 -0.2059562528 0.1752078106 0.9627482771 -0.8647641800 0.4792077034 -0.1501428985 -0.0545650577 0.3320575811 0.9416795725 -0.6879634576 0.4288474031 -0.5854879895 -0.0387484055 -0.7615558659 -0.6469398922 0.1346803014 -0.2781177545 -0.9510582164 0.6640589530 0.3246320164 -0.6735278471 -0.2386565661 -0.2963278770 0.9247879934 -0.1923000063 -0.3520437329 -0.9160163305 -0.1771610466 -0.3510696469 -0.9194368203 -0.1801646738 -0.3565776543 -0.9167295494 -0.8774162008 0.4309656204 0.2107354851 -0.5001288450 0.4190733706 -0.7577919559 0.5889329131 -0.5446861414 -0.5970552999 0.2174309889 -0.1597107454 -0.9629206836 0.9732607298 0.2296992709 0.0013404325 -0.6193094469 0.5275568296 -0.5814977219 0.9097919654 -0.4077832836 0.0774039622 0.6530794226 0.0527724002 -0.7554484374 0.1091269247 0.9771364925 0.1824707903 -0.6847315744 -0.2364518663 0.6893715877 -0.6894313310 -0.2314215031 0.6863880300 -0.6822151355 -0.2397774127 0.6907165130 -0.6643666487 -0.2351652733 0.7094464393 0.4877494290 -0.4803085016 -0.7289747855 0.7528385816 -0.6492573660 -0.1081616505 0.0332304816 0.4261985846 0.9040190825 -0.6546736995 0.4063606750 0.6373957554 -0.0726099553 -0.4846422487 -0.8716935730 -0.5033498262 -0.6987151427 0.5083661100 0.3390181217 0.2884314742 -0.8954741749 -0.2373882118 0.0128336266 -0.9713300855 -0.2615763369 -0.0587897898 -0.9633906687 0.7522888232 0.2694475781 0.6012150440 0.1439956871 -0.6094751613 0.7796186695 -0.4401192769 0.8365785641 0.3262381464 0.2696937581 0.7976531942 0.5394577450 0.2716256912 0.8386181101 0.4721643244 0.2090914113 0.6355644718 -0.7431948492 -0.3845836415 0.7536663694 -0.5329938333 -0.2919794117 0.6684362205 0.6840621625 -0.2518929959 0.6666753337 0.7014940613 -0.8247871571 0.4462068666 0.3473119315 -0.1772993029 0.9573733183 0.2280379059 0.3002281219 0.5922475482 -0.7477338540 0.2806567828 0.5827398427 -0.7626572271 -0.2984481683 0.4463293159 -0.8436343003 -0.3000501417 0.4872081320 -0.8201208134 -0.1923639739 -0.5414388912 0.8184375533 -0.1957676043 -0.5312668480 0.8242757921 -0.4403186271 0.6284682623 -0.6412075716 0.0843753263 0.9896465808 0.1161053380 -0.6559076001 -0.6631173260 0.3606391993 -0.6477309402 -0.7391428096 -0.1846957935 0.6216381574 -0.6940126741 -0.3631974800 -0.4377168485 0.6553947320 -0.6155174293 -0.1216721800 0.3523847916 -0.9279120860 -0.2329685437 0.2568559843 -0.9379502444 -0.4786250395 0.7628194564 -0.4347695350 -0.1736959108 0.6567010128 0.7338756778 -0.7734267361 -0.6004205979 -0.2032392420 -0.7640801004 -0.6230859785 -0.1671689671 0.2986762680 0.2188548199 -0.9289214470 0.2974135652 0.2166319506 -0.9298471752 -0.2439390606 0.3579285314 -0.9013217522 0.3978196632 0.4542124059 -0.7971390129 0.3423536197 0.4963699159 -0.7977536623 -0.3679616684 0.7958059596 0.4809335560 -0.3649432818 0.8040852192 0.4693222361 -0.8854925736 0.3731738358 0.2768468718 -0.8869881859 0.3678067310 0.2792313857 0.0322056261 0.0956236694 -0.9948964325 0.0299056916 0.0983252806 -0.9947048752 0.0681953798 0.0531642437 -0.9962544622 0.0336722641 0.0939391667 -0.9950083475 0.0706259484 0.0502731431 -0.9962352064 0.0315018826 0.0964964735 -0.9948346908 0.0697343880 0.0513364369 -0.9962437881 -0.9735273483 0.2172856287 0.0709327690 -0.4238705594 -0.7489809512 -0.5092752533 0.4890319435 -0.6031937379 0.6300833856 0.0011442755 0.0684582891 -0.9976533232 0.1759355495 -0.2961200813 -0.9388075308 0.5084293538 -0.3526566950 -0.7855780341 0.1803340041 -0.9835925986 -0.0050246267 0.9711445324 -0.0971723846 -0.2177976695 -0.2651231108 -0.9614105054 0.0734818089 -0.2908652281 -0.5680925491 0.7698495143 0.6003626081 -0.1235771158 -0.7901224179 0.4877579945 0.4212431136 0.7646217222 -0.0679982895 -0.9155810166 -0.3963428246 -0.1218900972 0.3804010004 -0.9167539927 0.3198480265 -0.2090796117 0.9241119823 -0.6040764260 -0.0347646051 -0.7961677548 -0.2391593959 -0.6359418486 0.7337443346 -0.2315486849 -0.6370178193 0.7352506405 0.8045620301 -0.5925201385 0.0399978142 0.5654754858 -0.0073172352 0.8247326434 0.0996577202 0.7560967609 0.6468276641 -0.1534822808 0.6421888994 -0.7510237060 0.7465873690 0.1815147646 -0.6400466317 0.1414884469 -0.5278161955 -0.8374909451 -0.6001533967 -0.5560335383 -0.5750153083 -0.2655317717 0.5367706882 -0.8008558588 -0.8479740227 -0.3158352512 -0.4256620148 -0.7710790242 -0.1248553023 -0.6243783244 0.3590315541 0.2544338821 -0.8979753576 0.3518004082 0.2536804245 -0.9010453457 0.3589464797 0.2544589992 -0.8980022508 0.4646800918 -0.0593450397 0.8834877354 -0.0936994964 -0.1858355052 -0.9781030464 -0.0848796693 -0.1981157638 -0.9764965877 -0.1139113260 -0.6161848566 -0.7793204939 0.0886013703 0.1653677569 0.9822440136 0.7157436951 -0.2994505848 -0.6309043590 0.8781583687 0.0218765294 0.4778695397 0.4081708613 0.9091438165 -0.0827893041 0.9198030095 -0.1472188924 -0.3637155776 0.4277914131 0.5480265096 -0.7187916608 0.4394566287 0.5374413175 -0.7197462759 -0.0485461850 -0.6506540216 0.7578209631 -0.0481444516 -0.6506587637 0.7578425199 -0.0497869436 -0.6508242204 0.7575942809 -0.0495890272 -0.6508277414 0.7576042366 -0.0496812253 -0.6508526296 0.7575768148 0.3639469897 -0.0156324215 -0.9312884709 0.9432762817 0.2503071939 -0.2181196120 -0.4285867535 0.5268877389 0.7339636948 -0.4289777813 0.5264621000 0.7340406803 -0.4345411406 0.5250586635 0.7317700438 -0.7262295551 0.3025739802 0.6172840673 -0.0362807072 0.2405684745 -0.9699538749 0.0041109284 0.2892681743 -0.9572392719 0.0163339751 0.3096371561 -0.9507144854 0.2013686163 0.3973512841 -0.8953003057 0.1078148957 0.8494470232 -0.5165420632 -0.3693009933 -0.1432361135 -0.9182048748 -0.2699993591 0.0784240796 -0.9596614037 -0.3530755438 -0.2886910653 0.8899410818 -0.3215949282 -0.9253118622 -0.2009344663 0.2932612290 -0.5837341469 -0.7571342664 -0.0298844474 -0.6451760413 -0.7634492751 0.2668492581 0.3719952762 -0.8890506105 0.3191418776 0.1144437832 -0.9407715357 -0.3964310492 0.0135317887 -0.9179647673 -0.3971804254 0.0123240367 -0.9176577945 -0.3732243833 0.0502529765 -0.9263790790 -0.3734419201 0.0499615942 -0.9263071690 0.1842489774 -0.3894808455 0.9024173011 -0.2693782504 0.0358315703 -0.9623676308 -0.2119967901 0.0192410327 -0.9770809299 -0.0860933816 -0.1622269355 0.9829905142 0.6306334012 -0.6960394581 -0.3432646007 0.6343627877 -0.6933834875 -0.3417648209 -0.2452331143 0.8945692936 -0.3736395304 -0.4035325568 0.9128051924 0.0628343563 -0.5502991582 -0.7400337092 0.3866793838 0.1735310960 0.3615625177 -0.9160564963 0.1744386670 0.3463886700 -0.9217299174 0.3688314225 -0.7351873549 -0.5687380197 -0.4895724431 -0.5444960205 -0.6810601344 0.0874888250 0.4826734194 0.8714195750 0.0729880626 0.4577570172 0.8860763263 0.2545711312 0.7718898493 -0.5825629577 0.2177892081 0.8018532963 -0.5564163478 -0.1614281843 -0.9838708367 0.0770656739 -0.0928267320 0.9011105413 0.4235362915 -0.4452263285 -0.8639954074 -0.2351285871 0.7007702611 -0.1018104574 0.7060847484 0.7780998218 -0.0149290048 0.6279632092 -0.1273602493 -0.6337182993 0.7630075255 -0.1228478054 -0.6298749503 0.7669197896 -0.1273290001 -0.6337433456 0.7629919382 -0.1228175983 -0.6299743257 0.7668429999 -0.1228746240 -0.6300222329 0.7667945049 -0.0929735518 -0.6040539836 0.7915015499 -0.1219725116 -0.6310549496 0.7660890007 -0.0935157029 -0.6037204085 0.7916921634 -0.0933942814 -0.6036249414 0.7917792864 -0.0310389221 0.6017021203 0.7981172494 0.5127506144 0.8092073293 -0.2868280070 0.9208304721 0.2509969757 0.2984489234 -0.0789281408 0.2649768549 -0.9610190502 -0.0744944735 0.2682407373 -0.9604673239 -0.0701710319 0.2713501832 -0.9599193218 0.3275287677 0.4936437185 -0.8056306756 0.6858799472 0.7189590785 0.1125457306 -0.1523931352 -0.6449733591 0.7488562602 -0.1524412715 -0.6449513364 0.7488654301 -0.1524547343 -0.6449489931 0.7488647076 -0.1524066319 -0.6449545110 0.7488697466 -0.1524372671 -0.6449510047 0.7488665309 -0.1524572369 -0.6449486832 0.7488644650 -0.1524539859 -0.6449490577 0.7488648043 -0.1523874751 -0.6449567169 0.7488717452 -0.1524025071 -0.6449549859 0.7488701770 0.0626415104 0.755246744