<?xml version="1.0"?>
<VTKFile type="UnstructuredGrid" version="0.1" byte_order="LittleEndian">
  <UnstructuredGrid>
    <FieldData>
      <DataArray type="Float32" Name="TIME"  NumberOfTuples="1" format="ascii"> 4.3500000000 </DataArray>
      <DataArray type="Int32"   Name="STEP"  NumberOfTuples="1" format="ascii"> 435000 </DataArray>
    </FieldData>
    <Piece NumberOfPoints="399" NumberOfCells="399">
      <Points>
        <DataArray type="Float32" NumberOfComponents="3" format="ascii">
 0.4248653449 0.2068251626 0.0759428234 0.5299832418 0.1286324995 0.0400907342 0.5050732809 0.1472905761 0.1825916158 0.6403306980 0.1082661075 0.1124597350 0.5396123658 0.3646965306 0.2040004742 0.5528624965 0.3591023103 0.2072263589 0.5678907972 0.4472842172 0.1939267570 0.7522014440 0.1787389272 0.1457377878 0.7585132191 0.1855914507 0.1501548357 0.6781370246 0.4551487834 0.1694658296 0.8496087959 0.2321590639 0.1150672403 0.7816290865 0.3733974993 0.0369726531 0.7953317238 0.3703145262 0.0373491890 0.8168259546 0.3857433143 0.0431749813 0.8042874899 0.3963505301 0.2240354773 0.8177013108 0.3880442278 0.2261939607 0.8970055997 0.3686628266 0.1723158865 0.7489576968 0.3245510869 0.6726884263 0.7715937159 0.2992914545 0.6582627350 0.7860264049 0.3638996583 0.5621512561 0.8677399993 0.6052380132 0.5111381050 0.9118154623 0.5556479554 0.5587194564 0.8933347353 0.6065773092 0.4947004855 0.9262234461 0.5446453757 0.5458334840 0.9417328073 0.3093612954 0.5254662302 0.9349241288 0.3343196375 0.5344030350 0.9466583956 0.4740612320 0.4508191727 0.2426831803 0.7997981359 0.0414070607 0.2550042641 0.8173391248 0.0914574912 0.0745409194 0.9091235655 0.1097901362 0.1543236818 0.7223194255 0.0815085811 0.0388482243 0.8885766710 0.1662302568 0.0554832960 0.8047838330 0.1553460515 0.0622454461 0.7985057466 0.1588803386 0.1716657827 0.7198410544 0.1453822875 0.1846703588 0.8263777200 0.1958309567 0.5696628224 0.7614158712 0.2455269808 0.6836959031 0.7584631122 0.2617670525 0.6518272839 0.7389198819 0.1620806450 0.7064499855 0.8129144751 0.2796418127 0.6573954865 0.7424563940 0.1621259179 0.6559152366 0.7439888046 0.1560627182 0.6050544727 0.8504647979 0.2446689421 0.6094913642 0.8548459154 0.2417824243 0.5207963086 0.7623147509 0.0984627287 0.7326507289 0.8581094297 0.2193672689 0.7273897073 0.8568455809 0.2066725635 0.5647763841 0.8549310616 0.1613300953 0.5655440704 0.8555397811 0.1539494234 0.1730880592 0.4807040690 0.3236699540 0.1676981481 0.4846856963 0.4415921525 0.1372092906 0.6603892842 0.2434469394 0.0843620545 0.6890418820 0.2636710648 0.1610016896 0.6613731596 0.2414226200 0.2576849606 0.4522145231 0.3447856544 0.2908211313 0.4616808799 0.4187209207 0.2909889312 0.5655091315 0.4523281158 0.3086336198 0.4589966432 0.2813311751 0.1182089001 0.7733037878 0.4080899270 0.2713210678 0.7854265168 0.2555507349 0.4240761962 0.5343442665 0.4164807924 0.4308569093 0.5455603184 0.4205654892 0.2460008540 0.8876087571 0.3715553469 0.3711237504 0.8402716720 0.4486931067 0.3884544788 0.8571709547 0.4473813544 0.4440475535 0.9114116218 0.2749309819 0.5616933401 0.7792374716 0.4616561701 0.7554631123 0.3393614674 0.5253679854 0.7491422608 0.3251156544 0.5221870067 0.7310392854 0.1923224763 0.5211132917 0.6605267655 0.0750020764 0.2089066455 0.6490921829 0.1078240843 0.2421729990 0.6082326379 0.1071847801 0.3161804765 0.5368084056 0.0942196691 0.3297715399 0.6497666674 0.8867023921 0.4452710357 0.6558279244 0.9007451288 0.3525091223 0.6572073587 0.9097057495 0.3464140118 0.7437353305 0.9446357343 0.5283421298 0.6975288057 0.9102989847 0.3310050782 0.7118969928 0.2412321497 0.2823339333 0.6923340514 0.1618250749 0.4376718880 0.7639626390 0.3793128982 0.3440296027 0.7707361102 0.3872251752 0.3523735482 0.5690856682 0.3189430878 0.3113887751 0.5335514939 0.2357772775 0.4478713116 0.4819229912 0.2672510580 0.3471237014 0.4709348250 0.3273644465 0.5039583133 0.4582437678 0.3355683891 0.5055499616 0.3861280989 0.4139791767 0.4441320934 0.5795575262 0.5972596811 0.5628787599 0.1272840824 0.2954920030 0.0794078033 0.1210212734 0.2920254524 0.0845414341 0.1781403616 0.3772358549 0.0528338977 0.1491839329 0.4388042182 0.0568121684 0.0950511065 0.4146551969 0.1045545230 0.2077569969 0.4386272780 0.0527655647 0.1964209241 0.4344283779 0.0567129556 0.2718643914 0.5419336495 0.0599524566 0.1116350311 0.4730195427 0.1348031555 0.1123438219 0.4827923726 0.1420335067 0.1047362061 0.4920111616 0.1450385754 0.0995440635 0.5073281385 0.1534455411 0.1196635022 0.6091642359 0.0768630907 0.1243074546 0.6141213265 0.0785438256 0.0731065614 0.6660885396 0.2039455419 0.0764847668 0.6738817063 0.1942220081 0.1368993224 0.3952856377 0.2410301995 0.2422133598 0.3041289923 0.2229843486 0.2365967180 0.2958150398 0.2228485570 0.2487069903 0.3044898336 0.2244119056 0.2293356517 0.2902092135 0.2219681848 0.2433833098 0.2948293101 0.2245373870 0.2197446021 0.2869282754 0.2202321515 0.2548633710 0.3066654583 0.2255146519 0.2368435288 0.2880811831 0.2239870774 0.2496214536 0.2953273839 0.2258876550 0.2609601138 0.3107895389 0.2263359591 0.2673067994 0.3172670191 0.2268945553 0.2743127299 0.3269065141 0.2271854490 0.0603281745 0.3238592342 0.2405524147 0.2818533778 0.3248940073 0.2291693681 0.2734196463 0.3270487952 0.3139743910 0.2819440394 0.3344277010 0.3145354320 0.0744061777 0.2508626477 0.2704874266 0.0724365706 0.1488441282 0.2300772915 0.1130165177 0.0685983762 0.2994130878 0.1289107223 0.0610860130 0.3107436793 0.2422533987 0.1318701918 0.3407275431 0.2508579348 0.1370575527 0.3419974637 0.2667438192 0.1556163098 0.3433603665 0.2741729607 0.1652457247 0.3438922387 0.2824440958 0.1696902159 0.3451599070 0.8679178983 0.1866464449 0.4388063141 0.8336808066 0.1057840424 0.4125785174 0.7587834319 0.1533907711 0.5977296222 0.7548289017 0.1422539683 0.5935165580 0.7470142681 0.1331145888 0.5912833932 0.2973183461 0.2801240916 0.5031614915 0.2898204787 0.2700269962 0.4140874469 0.2535001229 0.3450425752 0.3698630235 0.3102815896 0.3803418560 0.4286198948 0.6312897364 0.7388024757 0.5144393357 0.6934331917 0.6467628668 0.3835488248 0.7179972835 0.8411229776 0.5228724776 0.7601125021 0.7119194822 0.4431574084 0.7150674804 0.7763953609 0.3773381142 0.7224913729 0.7765642187 0.3764745964 0.7217484033 0.7830361396 0.3798928382 0.5481880219 0.5178810815 0.2034166104 0.6016770027 0.5231818459 0.2544421613 0.6024648822 0.5427588943 0.2596856473 0.6200435949 0.5473504016 0.0836204658 0.6262678404 0.5623854534 0.0836988287 0.6399067856 0.5592325505 0.0832588520 0.7413566787 0.6640248000 0.2510470960 0.8187175201 0.4748237473 0.2427188054 0.8265617462 0.4850381903 0.2453613115 0.7524093805 0.6663459176 0.2524259917 0.8342694120 0.4949640773 0.2478052455 0.7588455612 0.7526339176 0.1137497024 0.7644306464 0.6690104345 0.2538321469 0.7782259115 0.6723032455 0.2552955999 0.8026217087 0.7665641480 0.1615337347 0.8794310422 0.6238429119 0.0942661717 0.9217430819 0.5592534105 0.1912942658 0.8981103737 0.6354671103 0.0942526423 0.9265941530 0.6781194840 0.2684887737 0.9125151505 0.7262491047 0.2334566435 0.9396906591 0.6711484339 0.2630037466 0.3658526648 0.5765588755 0.0833477224 0.4803348711 0.7324424606 0.0279598555 0.4430329427 0.6659640020 0.0961069848 0.4495917077 0.6639641096 0.0952665675 0.4523357296 0.6598793547 0.0965930785 0.3894146154 0.1711524093 0.4216737898 0.3343297949 0.0835969640 0.4717569678 0.1711624534 0.1840705774 0.3885515384 0.2163979457 0.1306976029 0.4587596104 0.1403163811 0.0872431958 0.4244189822 0.9285704974 0.4500576698 0.5810538013 0.2542664060 0.1549627564 0.0768235004 0.2905349853 0.1241718186 0.1289598560 0.3212512070 0.0796909000 0.1134317721 0.3626133831 0.1664947889 0.0989905117 0.3618114057 0.1720327396 0.1001069459 0.3650570836 0.1699174109 0.1024747087 0.3680816898 0.1736260636 0.1065970974 0.3291197125 0.2036814499 0.1572354276 0.3370097832 0.2091286753 0.1616358238 0.0617466411 0.1503424893 0.5058001932 0.1851544233 0.1663338818 0.5386193032 0.1499010426 0.2658907045 0.5712995472 0.1483449071 0.2522243671 0.4787909974 0.0408593918 0.9382737295 0.1632795787 0.1579120829 0.9508841324 0.1726204469 0.1685811775 0.9468865189 0.1683303405 0.4623075611 0.4848406472 0.1661080820 0.4577480206 0.4752226913 0.1662387521 0.5258208200 0.3954498346 0.2669789534 0.8807305529 0.5610002838 0.0484157218 0.8724848474 0.5657487496 0.0455650753 0.8788721959 0.5639568419 0.0436097384 0.9528858694 0.5564838055 0.0824622366 0.0848615106 0.9509145966 0.2972595258 0.0909307306 0.9527343907 0.2984105136 0.7712013048 0.0774324671 0.2849991196 0.7320444918 0.0975390727 0.3049635128 0.7245536042 0.0995460955 0.3031239723 0.8351613029 0.1252679001 0.3223784408 0.8416794565 0.1387116034 0.3278998399 0.7707172931 0.1908857442 0.2038467070 0.7747344615 0.1947187550 0.2066772091 0.3426271871 0.1902180093 0.5344578968 0.3550224577 0.1906348599 0.5362015113 0.4139997300 0.2829447001 0.5664132867 0.9549010039 0.6061796465 0.3610204184 0.8663829072 0.6117985827 0.4001127287 0.8999172180 0.4790677551 0.3659220785 0.9022702336 0.4738061431 0.3628361025 0.8960225101 0.4718838781 0.3635566897 0.9027217210 0.3807539520 0.2926230863 0.8058052224 0.0773915555 0.5900191904 0.3432510815 0.9113997474 0.0686959161 0.3482564182 0.9041869604 0.0728549100 0.2973774808 0.8399041396 0.0897858168 0.2988439208 0.8343471637 0.0890977331 0.8006524679 0.6605803074 0.3595345753 0.6844025901 0.6155007939 0.3399598749 0.6751676578 0.6201203833 0.3384222916 0.1505752385 0.9040894725 0.4534406321 0.1568606331 0.9069184375 0.4543829448 0.1183440772 0.9135209146 0.2299884822 0.1206153275 0.9131855870 0.2376250742 0.2538576303 0.3186004495 0.1147664576 0.2556204111 0.3240388028 0.1154066600 0.2607364526 0.3190389858 0.1151260622 0.2621690691 0.3245771759 0.1156873271 0.2673286377 0.3190363923 0.1154432853 0.2631780278 0.3301133458 0.1161661377 0.2685365817 0.3247189828 0.1158618678 0.3468124047 0.2670681543 0.0577853526 0.2798048032 0.4118685016 0.0597694718 0.1971452091 0.4195477945 0.3309932554 0.3175369087 0.4047895987
[...]
      <PointData Scalars="overlap">
        <DataArray type="Float32" Name="overlap" format="ascii">
 0.0002254870 0.0000175874 0.0002059132 0.0000272730 0.0000866611 0.0000334643 0.0000068581 0.0000517478 0.0002479549 0.0002508611 0.0001091360 0.0000486772 0.0000729581 0.0004923837 0.0000271008 0.0002313029 0.0000930458 0.0000060400 0.0000061256 0.0001282642 0.0000225602 0.0000492941 0.0000314303 0.0000303021 0.0000236871 0.0000097025 0.0001206909 0.0000834358 0.0001927068 0.0001200494 0.0000300910 0.0000289036 0.0000077019 0.0000869564 0.0002830973 0.0000288625 0.0001997607 0.0000835167 0.0000472223 0.0000982720 0.0001041978 0.0001686695 0.0000241757 0.0000127772 0.0001834099 0.0000524967 0.0000014654 0.0000530502 0.0001662556 0.0000602589 0.0000791706 0.0002214915 0.0000634467 0.0000341993 0.0000158755 0.0000084171 0.0000551228 0.0002890830 0.0001526209 0.0000510755 0.0001172284 0.0000168332 0.0000946189 0.0000952302 0.0000257565 0.0003202966 0.0000194446 0.0000906084 0.0000907406 0.0000192385 0.0000292067 0.0000607804 0.0000072562 0.0000863903 0.0000183076 0.0000016475 0.0000080741 0.0000088437 0.0000385932 0.0001859017 0.0000087978 0.0000307701 0.0002618361 0.0001148425 0.0000373776 0.0001252290 0.0000100093 0.0000136969 0.0000040889 0.0000158813 0.0000165804 0.0000396831 0.0000070429 0.0000394764 0.0000271369 0.0001011589 0.0001228949 0.0000461446 0.0000056083 0.0000080685 0.0000275749 0.0000245195 0.0000822047 0.0000445051 0.0000529187 0.0000486210 0.0000602435 0.0000762398 0.0000621891 0.0000974513 0.0000384764 0.0000569142 0.0000137710 0.0001103836 0.0000157833 0.0000254346 0.0001251366 0.0001384155 0.0001234352 0.0000800151 0.0001383353 0.0000157513 0.0000303117 0.0000371241 0.0000325305 0.0000592088 0.0000283518 0.0000085733 0.0000406210 0.0001086415 0.0000464121 0.0000186863 0.0000024655 0.0000396161 0.0000015857 0.0000123529 0.0000048990 0.0000335376 0.0000389744 0.0000605557 0.0000185571 0.0000168139 0.0000082916 0.0000067415 0.0000121408 0.0000222457 0.0000203356 0.0000126762 0.0000104359 0.0000258547 0.0000088602 0.0001699995 0.0000140827 0.0000454886 0.0000110896 0.0000460780 0.0001709548 0.0000240928 0.0001046236 0.0002023896 0.0000361846 0.0000389147 0.0001534492 0.0000029977 0.0000397479 0.0002877951 0.0000076019 0.0000180436 0.0000144748 0.0000432107 0.0000044323 0.0000130887 0.0000080366 0.0000748276 0.0000377145 0.0000595345 0.0000612189 0.0000358689 0.0000603097 0.0000172525 0.0000352124 0.0000000982 0.0000570842 0.0000125367 0.0000175014 0.0000518370 0.0000190724 0.0000527793 0.0000302532 0.0000299875 0.0000204857 0.0000078398 0.0000285236 0.0000113668 0.0000229045 0.0000146361 0.0000044625 0.0000260096 0.0000156839 0.0000056722 0.0000674946 0.0000368617 0.0000020993 0.0000126687 0.0000078346 0.0000400674 0.0000105977 0.0000493213 0.0000639830 0.0000374424 0.0002482331 0.0000716878 0.0000078613 0.0000103725 0.0000072410 0.0000071621 0.0000118518 0.0000366696 0.0000338236 0.0000538540 0.0000648675 0.0000026783 0.0000081163 0.0000882503 0.0000310333 0.0000607572 0.0000853646 0.0000025858 0.0000075082 0.0000559049 0.0000901583 0.0000004468 0.0000287178 0.0000797180 0.0001170238 0.0003507315 0.0003214605 0.0000396573 0.0000254661 0.0001376060 0.0001622655 0.0000229642 0.0000388233 0.0000069833 0.0000152579 0.0000603450 0.0000176580 0.0000220171 0.0000122146 0.0000311820 0.0000745333 0.0000535560 0.0000058175 0.0000330612 0.0000231420 0.0000208297 0.0000334593 0.0000189597 0.0000232574 0.0000275664 0.0000620292 0.0000031657 0.0000056599 0.0000215468 0.0000014270 0.0000081368 0.0000690171 0.0002011153 0.0001004435 0.0000705438 0.0000618171 0.0000254344 0.0000532751 0.0000846126 0.0000197284 0.0000507348 0.0000228490 0.0001329140 0.0000053320 0.0000218294 0.0000399439 0.0000061562 0.0000000169 0.0000135146 0.0000074058 0.0000122388 0.0000692669 0.0000458957 0.0000086441 0.0000062372 0.0000203711 0.0000509197 0.0000422205 0.0000043773 0.0000223426 0.0000264533 0.0000096575 0.0000019096 0.0000134118 0.0000581635 0.0001163382 0.0000069983 0.0000207912 0.0000300916 0.0000081607 0.0000234797 0.0000218461 0.0000728769 0.0000744883 0.0000795010 0.0000090552 0.0000791856 0.0000033704 0.0000339457 0.0000164263 0.0000035725 0.0000090423 0.0000222140 0.0000323638 0.0000314958 0.0000289909 0.0000209317 0.0000060241 0.0000219259 0.0000137069 0.0000218592 0.0000040644 0.0000588748 0.0000081314 0.0000052122 0.0000114279 0.0000607180 0.0000875663 0.0000141624 0.0000074716 0.0000051174 0.0000503941 0.0000601912 0.0000343850 0.0000376350 0.0000593677 0.0000512530 0.0000147069 0.0000058913 0.0000104610 0.0000042463 0.0000066255 0.0000086801 0.0000098052 0.0000055018 0.0000459198 0.0000166855 0.0000076903 0.0000326948 0.0000234040 0.0000007997 0.0000054403 0.0000595048 0.0000461417 0.0000197371 0.0000226487 0.0000419126 0.0000146764 0.0000079935 0.0000069420 0.0000337391 0.0000269862 0.0000105475 0.0000221058 0.0000404476 0.0000195034 0.0000138872 0.0000139280 0.0000066360 0.0000151944 0.0000080266 0.0000101031 0.0000157240 0.0000149976 0.0000045988 0.0000049615 0.0000516936 0.0000115916 0.0000606927 0.0000295964 0.0000317472 0.0000089053 0.0000187051 0.0000046286 0.0000027719 0.0000038936 0.0000651322 0.0000061967 0.0000313891 0.0000109233 0.0000235802 0.0000130723 0.0000245753 0.0001357611
        </DataArray>
        <DataArray type="Float32" Name="contact normal" NumberOfComponents="3" format="ascii">
 0.9747541242 -0.1893218970 -0.1183706746 0.1555829338 0.9312610613 0.3294643933 -0.0006369263 0.6164473862 -0.7873958435 -0.2103091246 0.7157920022 -0.6658917943 0.1103542051 -0.0480232973 -0.9927314402 0.2338320686 -0.1107060220 -0.9659537983 0.5992119625 -0.7720012237 -0.2120356919 -0.3785366903 0.6351392538 -0.6732815922 -0.3288792858 0.6782702979 -0.6571056371 -0.1641729069 -0.9501190649 -0.2651811062 -0.8558114279 0.4668466749 0.2228025626 -0.1400018908 -0.4491029642 0.8824431982 -0.1479977676 -0.4748780620 0.8675180038 -0.1169566750 -0.3830507645 0.9162932107 -0.0083271814 0.0626856803 -0.9979985789 0.0267979384 -0.0943918581 -0.9951743805 -0.8319752427 -0.0603921260 0.5515160801 -0.4684006875 0.3948323250 -0.7903848626 -0.3784754925 -0.4904518511 -0.7849925371 0.4266883974 -0.1496695146 0.8919282751 0.4063670217 -0.1798408900 0.8958365353 -0.6620652225 -0.1481322989 -0.7346607810 0.5876563291 -0.7239422874 0.3613413946 -0.6340790616 -0.2069748284 -0.7450537994 -0.0676158762 -0.3232666841 -0.9438891589 -0.7624903688 0.1937251920 -0.6173159543 0.3124922611 -0.0294189454 0.9494646451 -0.7342334770 -0.5295620925 0.4248119484 -0.7988489912 -0.6010996962 0.0227913253 -0.0013714153 -0.9554460703 0.2951625416 0.3770199685 0.7929086594 0.4786980272 0.3335778039 -0.6196465720 -0.7104674338 0.7209786922 0.5217135261 -0.4560753469 0.7537165727 0.4852915582 -0.4431742677 0.2852135192 0.6836284454 -0.6717926742 -0.4732853265 -0.4351838980 -0.7659085941 0.2186479045 -0.1884187934 -0.9574400515 -0.6235801104 0.7261396737 -0.2896014851 -0.5201705012 0.6631031135 0.5382535746 -0.1223004055 -0.0632384427 -0.9904764057 -0.3277454418 0.7301531337 0.5995492697 -0.7229380372 0.6861789665 0.0807404500 0.4062233786 -0.7683106406 -0.4946527330 0.4403000114 -0.7260669146 -0.5281692299 0.1714085286 0.2531742125 0.9521144545 -0.4363229108 -0.6609556158 0.6105407369 -0.9456344121 -0.3248610401 -0.0155197710 0.6139376514 -0.7892938811 0.0097841432 0.5989294728 -0.8008016069 0.0005225274 0.5472218908 0.8316356439 0.0945005716 0.4998134335 0.7781925197 -0.3802669246 0.0644271867 -0.3623458158 0.9298143080 0.7572565458 -0.0105227237 0.6530327681 0.1054406607 0.2946075363 0.9497834841 -0.1808946986 0.8143178717 -0.5515102102 -0.1033738192 0.6607665128 -0.7434389478 -0.0956928335 0.2005415616 -0.9750004942 -0.2508197476 0.5934735441 0.7647735656 0.4793126246 -0.4879166798 -0.7295181433 0.2611706961 -0.8734918085 0.4108551180 -0.4050173053 0.2950868620 -0.8653812607 -0.5610581921 0.6174385797 -0.5513468104 0.6796909829 -0.6364756703 -0.3645804285 0.1152651757 -0.2602551769 -0.9586350620 0.2785716840 -0.2555649762 -0.9257885070 -0.1151262461 -0.6947423958 0.7099851766 -0.1319870351 -0.1364033623 -0.9818215445 0.1889876461 -0.3259867268 0.9262917054 0.1771334216 -0.3355311425 0.9252257040 -0.3539193298 0.6917201085 -0.6294953530 -0.5815543477 -0.3308882191 0.7431739548 -0.6850145842 -0.6446751108 0.3393361474 -0.3519564341 0.0410007043 -0.9351179662 0.2481413624 0.1400606979 -0.9585451816 0.6234658108 0.3239900459 -0.7115622481 0.9444695514 -0.0566732597 0.3236748495 0.9482890559 0.0855577666 0.3056595084 -0.4734712840 0.6020833157 -0.6429001666 -0.5584214321 0.4656563764 0.6865345172 -0.4312474347 0.6832493679 0.5892333590 0.1343174164 0.8425384500 -0.5216203522 -0.6365628016 -0.7535025652 0.1643827358 0.0926947142 -0.3335352254 0.9381694641 0.0489947327 -0.2190277573 0.9744877412 0.3163031470 0.5396016626 -0.7802450672 0.7737810237 0.4542850813 0.4414612013 0.3336651945 0.5760543419 -0.7462097112 0.2731875027 0.6214738960 -0.7342607064 0.8864805775 0.4479905020 -0.1160029996 -0.3028563051 -0.8435977937 -0.4434194639 -0.2974539341 0.9482581886 0.1110295670 -0.3437147521 0.8246725722 0.4491940760 -0.8803493426 -0.1147574284 -0.4602344703 -0.2751897428 -0.8528883490 -0.4436801434 -0.0722184665 -0.8079358031 -0.5848283776 -0.2014319472 0.9574071195 0.2068738220 -0.5934967523 0.7299744277 0.3389674615 -0.3922068839 -0.5327753994 0.7498827469 0.3396742624 0.5385641536 -0.7710836842 0.3863007478 0.5406371536 -0.7473173358 0.3396594925 0.5385632719 -0.7710908061 0.3396555170 0.5385630345 -0.7710927231 0.1126277547 -0.4601060314 0.8806914492 0.1108348046 -0.4528095556 0.8846915578 -0.0838005375 -0.9413531086 -0.3268513344 0.7066997542 -0.6148226897 -0.3500978686 0.4599494734 -0.3548458061 -0.8139600333 -0.2235107760 0.1352059215 0.9652783494 -0.2231837773 0.1348003672 0.9654107222 -0.2230442351 0.1346276998 0.9654670640 -0.2232307836 0.1348586584 0.9653917130 -0.2225794721 0.1340509965 0.9656545495 -0.2236714647 0.1354052215 0.9652131898 -0.2227724800 0.1342906402 0.9655767427 -0.2224695007 0.1339146382 0.9656988096 -0.1802120652 0.0818539535 0.9802160690 -0.2226780281 0.1341845378 0.9656132795 -0.2226627828 0.1344176882 0.9655843672 -0.2230760837 0.1349970639 0.9654081280 0.1669283225 -0.3145202230 -0.9344581127 -0.2215219465 0.1354768579 0.9656987357 0.2534601079 -0.2169882388 -0.9426951140 0.2505252812 -0.2101669601 -0.9450221862 0.4823438312 -0.3851727968 -0.7867568526 0.7374708500 0.4353350265 0.5163527477 0.4636655041 0.3371332662 -0.8193628385 0.8230638713 -0.5670089294 -0.0326609516 0.2197706128 -0.1326069715 -0.9664969058 0.2253255276 -0.1300576611 -0.9655637790 0.2248722116 -0.1264243064 -0.9661518427 0.2037503095 -0.0979232219 -0.9741133682 0.2245769838 -0.1254516125 -0.9663472829 0.1756625268 -0.7374332047 0.6521770812 0.1958947344 0.1959947862 0.9608388506 -0.0155865752 0.4234287156 -0.9057953309 -0.0707420772 0.3607667304 -0.9299693139 -0.1004631410 0.3256037172 -0.9401539112 -0.0743251409 0.1549465061 -0.9851230145 -0.3376664795 0.8585548365 0.3858301976 0.1560667360 -0.5231846770 0.8378072378 -0.3066378685 -0.9367086639 -0.1689677382 0.9259258596 0.1042832600 -0.3630238343 0.5340535890 0.5979786268 0.5976690773 -0.6750183133 -0.6277593827 -0.3876447267 -0.9195215034 0.3290632263 -0.2149362645 0.0689829740 -0.6885768052 0.7218748732 0.0714472621 -0.6715852892 0.7374743982 0.0633531572 -0.3691974242 0.9271891066 0.4348690869 0.8794826486 -0.1933885935 -0.3197032882 -0.5168129194 -0.7941625865 0.2726963115 0.5234741931 -0.8072245604 -0.0187448143 0.0079262390 0.9997928819 -0.0187547200 0.0079565068 0.9997924557 0.0753950022 -0.0381804678 0.9964225236 0.2195162959 -0.5921857317 -0.7753248707 -0.1204684249 0.3287115386 -0.9367155828 -0.1204816086 0.3287224044 -0.9367100741 0.2194877461 -0.5919977778 -0.7754764731 -0.1204932769 0.3287320209 -0.9367051984 0.1357615555 -0.0261304550 0.9903968898 0.2192773800 -0.5917316928 -0.7757390247 0.2181270425 -0.5917927396 -0.7760167181 -0.3180947356 -0.8153417147 0.4837702217 -0.2059576902 0.1752051382 0.9627484559 -0.8647654204 0.4792055101 -0.1501427548 -0.0545671221 0.3320553503 0.9416802395 -0.6879620166 0.4288528077 -0.5854857240 -0.0387652061 -0.7615531622 -0.6469420685 0.1346692719 -0.2781244677 -0.9510578151 0.6640592157 0.3246336850 -0.6735267839 -0.2386590881 -0.2963347197 0.9247851499 -0.1922969222 -0.3520450924 -0.9160164554 -0.1771580342 -0.3510710308 -0.9194368723 -0.1801616375 -0.3565790087 -0.9167296193 -0.8774163618 0.4309650735 0.2107359330 -0.5001194252 0.4190701014 -0.7577999806 0.5889322555 -0.5446872514 -0.5970549360 0.2173864663 -0.1597359244 -0.9629265594 0.9732606989 0.2296994200 0.0013373333 -0.6193071214 0.5275624847 -0.5814950680 0.9097904587 -0.4077862444 0.0774060733 0.6530774783 0.0527674561 -0.7554504636 0.1091483467 0.9771432500 0.1824217843 -0.6847329859 -0.2364466137 0.6893719873 -0.6894329306 -0.2314160908 0.6863882481 -0.6822164629 -0.2397722463 0.6907169954 -0.6643681921 -0.2351599189 0.7094467688 0.4877507645 -0.4803111844 -0.7289721242 0.7528392199 -0.6492559688 -0.1081655953 0.0332318783 0.4261981699 0.9040192267 -0.6546895011 0.4063000067 0.6374182000 -0.0725584463 -0.4846463627 -0.8716955747 -0.5033495551 -0.6987160456 0.5083651376 0.3390218149 0.2884351276 -0.8954715999 -0.2373892996 0.0128342522 -0.9713298113 -0.2615769682 -0.0587884850 -0.9633905770 0.7522918979 0.2694456607 0.6012120559 0.1439918642 -0.6094791259 0.7796162762 -0.4401139747 0.8365796327 0.3262425592 0.2696938775 0.7976549702 0.5394550592 0.2716256173 0.8386192261 0.4721623849 0.2090920898 0.6355663007 -0.7431930943 -0.3845864391 0.7536644797 -0.5329944868 -0.2919864503 0.6684335402 0.6840617773 -0.2519007216 0.6666727444 0.7014937479 -0.1772998873 0.9573727823 0.2280397018 0.3002285632 0.5922478802 -0.7477334138 0.2806571484 0.5827401129 -0.7626568861 -0.2984533441 0.4463289538 -0.8436326608 -0.3000552570 0.4872077642 -0.8201191604 -0.1923628553 -0.5414395381 0.8184373882 -0.1957664262 -0.5312676001 0.8242755871 -0.4403093230 0.6284673852 -0.6412148203 0.0843756437 0.9896471203 0.1161005082 -0.6559090662 -0.6631182416 0.3606348494 -0.6477430512 -0.7391344090 -0.1846869379 0.6216303804 -0.6940205690 -0.3631957047 -0.4377234701 0.6553908993 -0.6155168014 -0.1216781433 0.3523824939 -0.9279121766 -0.2329738564 0.2568529398 -0.9379497585 -0.4786271770 0.7628195206 -0.4347670692 -0.1736923136 0.6566987311 0.7338785708 -0.7734296575 -0.6004172600 -0.2032379857 -0.7640831308 -0.6230826011 -0.1671677042 0.2986763961 0.2188546162 -0.9289214538 0.2974136973 0.2166317401 -0.9298471820 -0.2439409080 0.3579242236 -0.9013229629 0.3978218558 0.4542093433 -0.7971396637 0.3423558463 0.4963669445 -0.7977545556 -0.3679628522 0.7958088042 0.4809279432 -0.3649444869 0.8040879789 0.4693165707 -0.8854921236 0.3731742556 0.2768477450 -0.8869876945 0.3678073085 0.2792321859 0.0322079377 0.0956223789 -0.9948964818 0.0299080036 0.0983239992 -0.9947049324 0.0681975900 0.0531629184 -0.9962543816 0.0336745617 0.0939378863 -0.9950083906 0.0706281493 0.0502718184 -0.9962351172 0.0315041797 0.0964952028 -0.9948347413 0.0697365873 0.0513351179 -0.9962437021 -0.9735264091 0.2172901654 0.0709317619 -0.4238658978 -0.7489807625 -0.5092794106 0.4890343549 -0.6031933786 0.6300818579 0.0011449701 0.0684584304 -0.9976533127 0.1759339154 -0.2961206904 -0.9388076449 0.5084283784 -0.3526551060 -0.7855793787 0.1803345174 -0.9835925065 -0.0050242484 0.9711451404 -0.0971710555 -0.2177955516 -0.2651234127 -0.9614097825 0.0734901778 -0.2908681245 -0.5680924616 0.7698484846 0.6003621734 -0.1235812549 -0.7901221008 0.4877587213 0.4212423955 0.7646216542 -0.0679932617 -0.9155814818 -0.3963426125 -0.1218593695 0.3804125749 -0.9167532748 0.3198464453 -0.2090828057 0.9241118070 -0.6040761250 -0.0347666000 -0.7961678961 -0.2391588298 -0.6359420261 0.7337443653 -0.2315481207 -0.6370179942 0.7352506667 0.8045604177 -0.5925224529 0.0399959623 0.5654834165 -0.0073106584 0.8247272640 0.0996567152 0.7560994074 0.6468247252 -0.1534865344 0.6421902690 -0.7510216656 0.7465848682 0.1815153569 -0.6400493807 0.1414894153 -0.5278170857 -0.8374902205 -0.6001512905 -0.5560365182 -0.5750146249 -0.2655329296 0.5367696376 -0.8008561790 -0.8479747757 -0.3158361278 -0.4256598643 -0.7710772819 -0.1248559681 -0.6243803429 0.3590315390 0.2544338078 -0.8979753847 0.3518004085 0.2536803361 -0.9010453705 0.3589464866 0.2544589271 -0.8980022685 0.4646804782 -0.0593506211 0.8834871572 -0.0936969187 -0.1858372997 -0.9781029524 -0.0848771004 -0.1981175362 -0.9764964514 -0.1139038358 -0.6161846194 -0.7793217763 0.0886054574 0.1653560819 0.9822456104 0.7157410283 -0.2994407010 -0.6309120755 0.8781636841 0.0218733167 0.4778599187 0.4081851495 0.9091367602 -0.0827963460 0.9197967552 -0.1472230224 -0.3637297222 0.4277896899 0.5480284138 -0.7187912346 0.4394549807 0.5374432547 -0.7197458356 0.4456010742 0.4935922739 -0.7468643450 -0.0485454870 -0.6506541448 0.7578209021 -0.0481437524 -0.6506588867 0.7578424587 -0.0497862351 -0.6508243439 0.7575942214 -0.0495883155 -0.6508278649 0.7576041772 -0.0496805074 -0.6508527532 0.7575767558 0.3639461963 -0.0156379613 -0.9312886880 0.9432757533 0.2503102814 -0.2181183536 -0.4285947896 0.5268773256 0.7339664775 -0.4289858185 0.5264516838 0.7340434539 -0.4345491472 0.5250482848 0.7317727361 -0.7262328883 0.3025652256 0.6172844371 -0.0362820396 0.2405688690 -0.9699537272 0.0041096842 0.2892686421 -0.9572391359 0.0163327207 0.3096376161 -0.9507143572 0.2013686845 0.3973554896 -0.8952984239 0.1078104072 0.8494480768 -0.5165412674 -0.3693025590 -0.1432358601 -0.9182042846 -0.2700010794 0.0784249166 -0.9596608513 -0.3530754062 -0.2886860478 0.8899427641 -0.3215961969 -0.9253116942 -0.2009332097 0.2932603207 -0.5837365298 -0.7571327810 -0.0298843849 -0.6451779427 -0.7634476706 0.2668506109 0.3719917950 -0.8890516610 0.3191397540 0.1144427047 -0.9407723873 -0.3964400020 0.0135262936 -0.9179609819 -0.3971894052 0.0123184738 -0.9176539825 -0.3732337116 0.0502476028 -0.9263756122 -0.3734512710 0.0499561794 -0.9263036912 0.1842577718 -0.3894763589 0.9024174419 -0.2693938428 0.0358332115 -0.9623632050 -0.2120123060 0.0192422920 -0.9770775385 -0.0860915630 -0.1622242556 0.9829911158 0.6306509921 -0.6960127839 -0.3432863685 0.6343798906 -0.6933570286 -0.3417867542 -0.2452331959 0.8945704196 -0.3736367809 -0.4035392241 0.9128023392 0.0628329869 -0.5502985985 -0.7400345672 0.3866785381 0.1735307749 0.3615624932 -0.9160565669 0.1744383492 0.3463886392 -0.9217299892 0.3688279851 -0.7351868513 -0.5687408997 -0.4895748292 -0.5444952078 -0.6810590689 0.0874890216 0.4826724744 0.8714200787 0.0729883955 0.4577556851 0.8860769870 0.2545688201 0.7718922934 -0.5825607292 0.2177870048 0.8018556201 -0.5564138613 -0.1614382849 -0.9838691455 0.0770661055 -0.0928250930 0.9011128531 0.4235317320 -0.4452218985 -0.8639967972 -0.2351318683 0.7007709509 -0.1018126056 0.7060837540 0.7780983123 -0.0149337798 0.6279649661 -0.1273481064 -0.6337171309 0.7630105228 -0.1228356715 -0.6298737524 0.7669227170 -0.1273168385 -0.6337421610 0.7629949515 -0.1228054455 -0.6299731112 0.7668459439 -0.1228624530 -0.6300210036 0.7667974652 -0.0929613466 -0.6040524684 0.7915041399 -0.1219603176 -0.6310536987 0.7660919725 -0.0935034841 -0.6037188840 0.7916947692 -0.0933820486 -0.6036234041 0.7917819012 -0.0310402872 0.6017031666 0.7981164075 0.5127436268 0.8092124237 -0.2868261259 0.9208306238 0.2509966068 0.2984487654 -0.0789219946 0.2649680338 -0.9610219872 -0.0744882539 0.2682318346 -0.9604702926 -0.0701647471 0.2713411976 -0.9599223212 0.3275156628 0.4936359643 -0.8056407545 0.6858706192 0.7189675859 0.1125482304 -0.1523923200 -0.6449742979 0.7488556175 -0.1524404564 -0.6449522753 0.7488647875 -0.1524539191 -0.6449499319 0.7488640650 -0.1524058168 -0.6449554498 0.7488691039 -0.1524364520 -0.6449519436 0.7488658882 -0.1524564218 -0.6449496221 0.7488638223 -0.1524531708 -0.6449499965 0.7488641617 -0.1523866600 -0.6449576557 0.7488711025 -0.1524016920 -0.6449559247 0.7488695343 0.0626455299 0.755244560