<?xml version="1.0"?>
<VTKFile type="UnstructuredGrid" version="0.1" byte_order="LittleEndian">
  <UnstructuredGrid>
    <FieldData>
      <DataArray type="Float32" Name="TIME"  NumberOfTuples="1" format="ascii"> 5.8999999999 </DataArray>
      <DataArray type="Int32"   Name="STEP"  NumberOfTuples="1" format="ascii"> 590000 </DataArray>
    </FieldData>
    <Piece NumberOfPoints="399" NumberOfCells="399">
      <Points>
        <DataArray type="Float32" NumberOfComponents="3" format="ascii">
 0.4248653001 0.2068255020 0.0759430509 0.5299832552 0.1286328491 0.0400907887 0.5050733969 0.1472907542 0.1825917651 0.6403307831 0.1082663597 0.1124597454 0.5396124713 0.3646967320 0.2040008377 0.5528625739 0.3591025245 0.2072268003 0.5678908701 0.4472844607 0.1939271350 0.7522015485 0.1787391769 0.1457377758 0.7585133260 0.1855916904 0.1501548291 0.6781371162 0.4551491011 0.1694661495 0.8496088734 0.2321593745 0.1150671802 0.7816290922 0.3733979356 0.0369727137 0.7953317300 0.3703149634 0.0373492420 0.8168259619 0.3857437435 0.0431750209 0.8042876141 0.3963507241 0.2240357418 0.8177014332 0.3880444386 0.2261942098 0.8970056797 0.3686630896 0.1723159466 0.7489580407 0.3245513027 0.6726906785 0.7715940676 0.2992915813 0.6582651636 0.7860265617 0.3638991129 0.5621532287 0.8677399436 0.6052371634 0.5111382129 0.9118156454 0.5556474689 0.5587199901 0.8933346847 0.6065763256 0.4947005831 0.9262233713 0.5446447407 0.5458337941 0.9417329101 0.3093605811 0.5254683086 0.9349242094 0.3343189730 0.5344048896 0.9466582819 0.4740599938 0.4508200251 0.2426831877 0.7997986416 0.0414070359 0.2550043492 0.8173395788 0.0914574824 0.0745409351 0.9091237611 0.1097905921 0.1543237584 0.7223197184 0.0815085892 0.0388483427 0.8885768636 0.1662307597 0.0554834866 0.8047840340 0.1553463784 0.0622456294 0.7985059353 0.1588806568 0.1716659849 0.7198412914 0.1453823607 0.1846705589 0.8263779292 0.1958310312 0.5696633132 0.7614165838 0.2455276687 0.6836965277 0.7584636265 0.2617672302 0.6518277055 0.7389199639 0.1620809916 0.7064506701 0.8129150787 0.2796415174 0.6573959178 0.7424564921 0.1621262593 0.6559156258 0.7439888666 0.1560630026 0.6050552286 0.8504653044 0.2446686342 0.6094921054 0.8548464371 0.2417821094 0.5207966738 0.7623145453 0.0984627221 0.7326514773 0.8581097278 0.2193667602 0.7273904370 0.8568457643 0.2066721290 0.5647770191 0.8549312307 0.1613298488 0.5655446727 0.8555399421 0.1539491720 0.1730877026 0.4807040703 0.3236712254 0.1676974253 0.4846861368 0.4415934443 0.1372092190 0.6603891081 0.2434474079 0.0843619362 0.6890417491 0.2636713304 0.1610016197 0.6613729384 0.2414231413 0.2576846204 0.4522146515 0.3447873522 0.2908205320 0.4616813893 0.4187225958 0.2909882129 0.5655097153 0.4523294738 0.3086335081 0.4589965172 0.2813328447 0.1182084061 0.7733040554 0.4080897943 0.2713209055 0.7854264981 0.2555511826 0.4240756696 0.5343446936 0.4164828379 0.4308564229 0.5455606744 0.4205674861 0.2460004861 0.8876089004 0.3715553155 0.3711229878 0.8402722708 0.4486937768 0.3884538136 0.8571714560 0.4473816686 0.4440473500 0.9114116628 0.2749315100 0.5616925670 0.7792381531 0.4616577221 0.7554643650 0.3393621439 0.5253685064 0.7491434443 0.3251163917 0.5221873410 0.7310382107 0.1923236026 0.5211113406 0.6605265148 0.0750018449 0.2089067034 0.6490922144 0.1078240798 0.2421729431 0.6082328364 0.1071851280 0.3161806280 0.5368085914 0.0942203324 0.3297718650 0.6497674613 0.8867017753 0.4452708690 0.6558289760 0.9007448808 0.3525089522 0.6572083646 0.9097055279 0.3464138723 0.7437355347 0.9446354910 0.5283423612 0.6975298638 0.9102990764 0.3310050881 0.7118971432 0.2412328828 0.2823342772 0.6923346720 0.1618255008 0.4376722120 0.7639626901 0.3793136778 0.3440302285 0.7707361629 0.3872259679 0.3523741026 0.5690857047 0.3189437000 0.3113896170 0.5335520965 0.2357775706 0.4478720963 0.4819231551 0.2672513853 0.3471248132 0.4709353993 0.3273644286 0.5039596164 0.4582443276 0.3355683366 0.5055513354 0.3861283632 0.4139791612 0.4441338527 0.5795578966 0.5972597556 0.5628804606 0.1272838378 0.2954926072 0.0794084157 0.1210210590 0.2920260596 0.0845420850 0.1781399310 0.3772364318 0.0528340114 0.1491834172 0.4388048059 0.0568121990 0.0950508204 0.4146557748 0.1045548145 0.2077567039 0.4386275773 0.0527658289 0.1964206479 0.4344287137 0.0567132228 0.2718642034 0.5419339816 0.0599527374 0.1116348258 0.4730199171 0.1348035543 0.1123436345 0.4827927436 0.1420339083 0.1047360203 0.4920115223 0.1450390127 0.0995438943 0.5073284886 0.1534460079 0.1196633487 0.6091647395 0.0768634568 0.1243073064 0.6141218271 0.0785441835 0.0731065830 0.6660888011 0.2039461269 0.0764848118 0.6738820421 0.1942226176 0.1368994051 0.3952855457 0.2410307969 0.2422137202 0.3041292785 0.2229847511 0.2365970984 0.2958153127 0.2228489402 0.2487073510 0.3044901315 0.2244123039 0.2293360450 0.2902094712 0.2219685578 0.2433836940 0.2948295947 0.2245377620 0.2197450019 0.2869285147 0.2202325223 0.2548637274 0.3066657681 0.2255150513 0.2368439288 0.2880814534 0.2239874386 0.2496218367 0.2953276811 0.2258880253 0.2609604609 0.3107898612 0.2263363652 0.2673071313 0.3172673552 0.2268949748 0.2743130384 0.3269068664 0.2271858908 0.0603284479 0.3238589395 0.2405527026 0.2818536930 0.3248943720 0.2291697968 0.2734198006 0.3270488633 0.3139750176 0.2819441729 0.3344277902 0.3145360921 0.0744066398 0.2508622693 0.2704874272 0.0724373199 0.1488438705 0.2300769018 0.1130174584 0.0685980098 0.2994124971 0.1289116536 0.0610856683 0.3107430752 0.2422541059 0.1318700540 0.3407273467 0.2508586261 0.1370574346 0.3419972934 0.2667444577 0.1556162314 0.3433602722 0.2741735713 0.1652456656 0.3438921852 0.2824446933 0.1696901753 0.3451598748 0.8679172015 0.1866464616 0.4388067306 0.8336794752 0.1057843685 0.4125786871 0.7587806302 0.1533922912 0.5977289308 0.7548260187 0.1422555297 0.5935158334 0.7470113067 0.1331162307 0.5912826109 0.2973201812 0.2801236005 0.5031617446 0.2898212879 0.2700269802 0.4140877130 0.2535000994 0.3450425902 0.3698640350 0.3102821125 0.3803418190 0.4286204540 0.6312885532 0.7388036920 0.5144373581 0.6934339275 0.6467633009 0.3835482832 0.7179964101 0.8411238442 0.5228715390 0.7601125461 0.7119198448 0.4431577527 0.7150688667 0.7763956152 0.3773374606 0.7224927694 0.7765644918 0.3764740133 0.7217497690 0.7830364258 0.3798922254 0.5481885096 0.5178813822 0.2034166566 0.6016774222 0.5231821070 0.2544422193 0.6024653106 0.5427591764 0.2596857714 0.6200442191 0.5473507729 0.0836205459 0.6262684641 0.5623858247 0.0836989207 0.6399074051 0.5592329249 0.0832589662 0.7413571182 0.6640250909 0.2510474099 0.8187179732 0.4748240492 0.2427191277 0.8265621958 0.4850384920 0.2453616449 0.7524098172 0.6663462114 0.2524263230 0.8342698584 0.4949643789 0.2478055898 0.7588461509 0.7526342786 0.1137501146 0.7644310802 0.6690107315 0.2538324971 0.7782263422 0.6723035465 0.2552959721 0.8026222171 0.7665644286 0.1615342095 0.8794316760 0.6238432661 0.0942665101 0.9217434838 0.5592537991 0.1912947172 0.8981109907 0.6354674385 0.0942529859 0.9265945756 0.6781197760 0.2684893082 0.9125156072 0.7262494569 0.2334572161 0.9396910807 0.6711487373 0.2630043061 0.3658526153 0.5765587397 0.0833474027 0.4803352393 0.7324424192 0.0279604874 0.4430330538 0.6659637679 0.0961072836 0.4495918127 0.6639638613 0.0952668540 0.4523358232 0.6598790934 0.0965933450 0.3894151625 0.1711526788 0.4216738937 0.3343308092 0.0835968143 0.4717569372 0.1711629603 0.1840697829 0.3885514509 0.2163986872 0.1306968997 0.4587594341 0.1403172357 0.0872421232 0.4244186738 0.9285702901 0.4500575021 0.5810547851 0.2542665405 0.1549642186 0.0768238220 0.2905346216 0.1241731663 0.1289605045 0.3212502400 0.0796916648 0.1134329184 0.3626136677 0.1664949073 0.0989911177 0.3618117197 0.1720328632 0.1001075484 0.3650573862 0.1699175166 0.1024753136 0.3680820243 0.1736261588 0.1065976895 0.3291203750 0.2036824182 0.1572355243 0.3370104348 0.2091296390 0.1616360094 0.0617468630 0.1503415374 0.5057996198 0.1851545989 0.1663331100 0.5386187977 0.1499010279 0.2658898413 0.5712991906 0.1483449817 0.2522236420 0.4787905602 0.0408595325 0.9382736830 0.1632800599 0.1579122865 0.9508840095 0.1726202603 0.1685813630 0.9468864037 0.1683301160 0.4623076602 0.4848415476 0.1661079958 0.4577480664 0.4752236561 0.1662386936 0.5258201360 0.3954505355 0.2669791959 0.8807307133 0.5610008798 0.0484159683 0.8724850345 0.5657493805 0.0455653043 0.8788723820 0.5639574583 0.0436099591 0.9528860018 0.5564839860 0.0824625348 0.0848630422 0.9509149735 0.2972594136 0.0909322269 0.9527348159 0.2984104589 0.1709236670 0.9291519231 0.3642661436 0.7712013400 0.0774326424 0.2849990175 0.7320445528 0.0975392055 0.3049635084 0.7245536612 0.0995462316 0.3031239841 0.8351613719 0.1252679688 0.3223784737 0.8416795283 0.1387116501 0.3278999187 0.7707171804 0.1908862709 0.2038470049 0.7747343525 0.1947192755 0.2066775106 0.3426295495 0.1902176369 0.5344586324 0.3550247983 0.1906345470 0.5362024220 0.4140012338 0.2829445260 0.5664151465 0.9549022355 0.6061793539 0.3610205769 0.8663841120 0.6117987994 0.4001128760 0.8999178456 0.4790676627 0.3659224363 0.9022707994 0.4738060803 0.3628364571 0.8960230656 0.4718838599 0.3635570188 0.9027218443 0.3807538017 0.2926235148 0.8058023503 0.0773932251 0.5900186221 0.3432516720 0.9113997947 0.0686959439 0.3482570088 0.9041870099 0.0728549439 0.2973776923 0.8399044337 0.0897858143 0.2988441045 0.8343474520 0.0890977209 0.8006527427 0.6605805391 0.3595349221 0.6844029359 0.6155010060 0.3399599511 0.6751679855 0.6201205695 0.3384223985 0.1505758722 0.9040900745 0.4534405411 0.1568612402 0.9069190516 0.4543829562 0.1183444962 0.9135207637 0.2299883234 0.1206157824 0.9131854703 0.2376249063 0.2538573930 0.3186009695 0.1147667763 0.2556201813 0.3240393221 0.1154069655 0.2607362155 0.3190395039 0.1151263504 0.2621688406 0.3245776907 0.1156876076 0.2673284014 0.3190369045 0.1154435489 0.2631778061 0.3301138589 0.1161664075 0.2685363512 0.3247194949 0.1158621218 0.3468118812 0.2670683310 0.0577854376 0.2798044174 0.4118687685 0.0597692142 0.1971447644 0.4195476049
[...]
      <PointData Scalars="overlap">
        <DataArray type="Float32" Name="overlap" format="ascii">
 0.0002253225 0.0000175437 0.0002057840 0.0000271285 0.0000865383 0.0000331453 0.0000067764 0.0000516560 0.0002478520 0.0002507126 0.0001090968 0.0000484958 0.0000727859 0.0004921894 0.0000268688 0.0002310647 0.0000930678 0.0000060996 0.0000060734 0.0001283355 0.0000224874 0.0000489333 0.0000314986 0.0000306793 0.0000235927 0.0000097690 0.0001205962 0.0000833558 0.0001926285 0.0001201963 0.0000299111 0.0000288161 0.0000077348 0.0000869385 0.0002829275 0.0000290084 0.0001988957 0.0000834281 0.0000473602 0.0000985337 0.0001043905 0.0001688615 0.0000243476 0.0000128532 0.0001827199 0.0000522982 0.0000013795 0.0000530452 0.0001661646 0.0000600223 0.0000789570 0.0002213802 0.0000634990 0.0000340481 0.0000157213 0.0000085563 0.0000551137 0.0002887570 0.0001531310 0.0000508262 0.0001168718 0.0000163811 0.0000950642 0.0000951261 0.0000264055 0.0003201026 0.0000192341 0.0000905765 0.0000911804 0.0000192283 0.0000291835 0.0000605734 0.0000071564 0.0000864790 0.0000181234 0.0000016306 0.0000080383 0.0000089196 0.0000386308 0.0001855657 0.0000087395 0.0000307627 0.0002616823 0.0001144686 0.0000377381 0.0001250847 0.0000100455 0.0000136904 0.0000040616 0.0000156796 0.0000165883 0.0000396754 0.0000069577 0.0000393860 0.0000273094 0.0001010156 0.0001227892 0.0000460385 0.0000056026 0.0000080782 0.0000275317 0.0000244496 0.0000818580 0.0000441402 0.0000530954 0.0000486704 0.0000602974 0.0000762070 0.0000621934 0.0000973904 0.0000385203 0.0000568916 0.0000138598 0.0001102929 0.0000157996 0.0000253832 0.0001250132 0.0001382549 0.0001232300 0.0000799659 0.0001380991 0.0000155679 0.0000301367 0.0000371661 0.0000323997 0.0000591927 0.0000283021 0.0000085502 0.0000406049 0.0001086483 0.0000464259 0.0000187107 0.0000024027 0.0000395310 0.0000015827 0.0000123721 0.0000048948 0.0000334404 0.0000390982 0.0000604749 0.0000185239 0.0000167094 0.0000083244 0.0000068175 0.0000119955 0.0000224005 0.0000203342 0.0000126956 0.0000104076 0.0000259708 0.0000088357 0.0001698886 0.0000139680 0.0000453915 0.0000111108 0.0000460681 0.0001709498 0.0000241032 0.0001046231 0.0002024498 0.0000361830 0.0000388992 0.0001535991 0.0000027586 0.0000399877 0.0002875071 0.0000075878 0.0000179354 0.0000144367 0.0000430377 0.0000045022 0.0000129063 0.0000079038 0.0000747174 0.0000377542 0.0000593382 0.0000611299 0.0000359153 0.0000600153 0.0000173280 0.0000350697 0.0000002192 0.0000570131 0.0000125282 0.0000176177 0.0000518791 0.0000191300 0.0000530649 0.0000302500 0.0000300073 0.0000204950 0.0000077605 0.0000284162 0.0000114078 0.0000228581 0.0000145126 0.0000043841 0.0000259571 0.0000157429 0.0000056725 0.0000674674 0.0000369156 0.0000020335 0.0000128849 0.0000076949 0.0000005150 0.0000400191 0.0000106867 0.0000494106 0.0000639111 0.0000373600 0.0002481504 0.0000715921 0.0000078723 0.0000104023 0.0000073844 0.0000071205 0.0000117468 0.0000364739 0.0000337155 0.0000538037 0.0000648190 0.0000026829 0.0000081366 0.0000881689 0.0000310397 0.0000607797 0.0000854185 0.0000026361 0.0000074566 0.0000562605 0.0000903037 0.0000005532 0.0000288926 0.0000796178 0.0001168851 0.0003506271 0.0003213084 0.0000395431 0.0000252763 0.0001374490 0.0001622349 0.0000229250 0.0000386933 0.0000069546 0.0000152692 0.0000603010 0.0000175859 0.0000222356 0.0000122575 0.0000312609 0.0000744956 0.0000535148 0.0000057851 0.0000332726 0.0000231234 0.0000207826 0.0000334085 0.0000189270 0.0000230977 0.0000277147 0.0000619281 0.0000030663 0.0000056381 0.0000215936 0.0000016212 0.0000080274 0.0000689850 0.0002010016 0.0001002979 0.0000704596 0.0000618245 0.0000254116 0.0000530247 0.0000844460 0.0000197694 0.0000510313 0.0000227573 0.0001328790 0.0000052343 0.0000218357 0.0000398943 0.0000060475 0.0000131734 0.0000071942 0.0000120948 0.0000693121 0.0000462152 0.0000084851 0.0000061599 0.0000201548 0.0000510321 0.0000426947 0.0000047251 0.0000223156 0.0000264252 0.0000096150 0.0000018429 0.0000133865 0.0000581707 0.0001162498 0.0000070530 0.0000208292 0.0000300554 0.0000081880 0.0000234358 0.0000218212 0.0000727538 0.0000745998 0.0000794188 0.0000091896 0.0000793045 0.0000033456 0.0000340496 0.0000165120 0.0000032570 0.0000092292 0.0000222678 0.0000323815 0.0000314925 0.0000290278 0.0000209631 0.0000060563 0.0000220089 0.0000136605 0.0000218887 0.0000040439 0.0000588355 0.0000080956 0.0000053541 0.0000114930 0.0000607904 0.0000874500 0.0000141763 0.0000075808 0.0000050760 0.0000504456 0.0000601861 0.0000344698 0.0000375744 0.0000593982 0.0000512304 0.0000145687 0.0000059786 0.0000103771 0.0000045505 0.0000063184 0.0000086574 0.0000097996 0.0000055210 0.0000459228 0.0000166780 0.0000076747 0.0000326253 0.0000233817 0.0000007409 0.0000053905 0.0000594768 0.0000461002 0.0000198199 0.0000226330 0.0000418929 0.0000146642 0.0000079343 0.0000069619 0.0000335635 0.0000269802 0.0000106110 0.0000221576 0.0000403721 0.0000195089 0.0000137744 0.0000140201 0.0000066078 0.0000152064 0.0000080322 0.0000100635 0.0000156084 0.0000151330 0.0000045930 0.0000049280 0.0000517320 0.0000115812 0.0000605497 0.0000295674 0.0000315663 0.0000093464 0.0000185058 0.0000045105 0.0000027827 0.0000039574 0.0000650020 0.0000060101 0.0000313273 0.0000110929 0.0000235880 0.0000132265 0.0000245294 0.0001356282
        </DataArray>
        <DataArray type="Float32" Name="contact normal" NumberOfComponents="3" format="ascii">
 0.9747550749 -0.1893151580 -0.1183736243 0.1555751962 0.9312610830 0.3294679856 -0.0006370756 0.6164443741 -0.7873982016 -0.2103076244 0.7157941096 -0.6658900028 0.1103628641 -0.0480297697 -0.9927301645 0.2338408445 -0.1107109151 -0.9659511130 0.5992067777 -0.7720061312 -0.2120324763 -0.3785348156 0.6351392338 -0.6732826650 -0.3288774997 0.6782701703 -0.6571066628 -0.1641725613 -0.9501201724 -0.2651773521 -0.8558113369 0.4668477211 0.2228007202 -0.1400028729 -0.4491053351 0.8824418358 -0.1479988801 -0.4748807641 0.8675163349 -0.1169574202 -0.3830525940 0.9162923508 -0.0083249778 0.0626809323 -0.9979988955 0.0267988432 -0.0943965281 -0.9951739132 -0.8319750775 -0.0603934445 0.5515161850 -0.4684034653 0.3948232246 -0.7903877624 -0.3784747766 -0.4904616994 -0.7849867291 0.4266484427 -0.1496864358 0.8919445483 0.4063599611 -0.1798459909 0.8958387140 -0.6620753289 -0.1481340465 -0.7346513208 0.5876617880 -0.7239383030 0.3613404992 -0.6340897101 -0.2069769024 -0.7450441607 -0.0676098812 -0.3232769670 -0.9438860665 -0.7624909292 0.1937183693 -0.6173174032 0.3124826668 -0.0294260974 0.9494675812 -0.7342366740 -0.5295585175 0.4248108792 -0.7988544908 -0.6010925905 0.0227859657 -0.0013699865 -0.9554466437 0.2951606920 0.3770212284 0.7929126288 0.4786904600 0.3335694017 -0.6196506888 -0.7104677883 0.7209803487 0.5217113155 -0.4560752571 0.7537179446 0.4852894568 -0.4431742356 0.2852078909 0.6836254822 -0.6717980791 -0.4732841901 -0.4351851773 -0.7659085695 0.2186616804 -0.1884339058 -0.9574339312 -0.6235803127 0.7261395096 -0.2896014608 -0.5201695923 0.6631041205 0.5382532124 -0.1223107750 -0.0632332054 -0.9904754596 -0.3277452161 0.7301529236 0.5995496489 -0.7229386313 0.6861784076 0.0807398798 0.4062266343 -0.7683045255 -0.4946595573 0.4403016269 -0.7260608050 -0.5281762820 0.1714134768 0.2531712878 0.9521143414 -0.4363228844 -0.6609522367 0.6105444139 -0.9456346526 -0.3248604588 -0.0155172878 0.6139393713 -0.7892926315 0.0097770232 0.5989305566 -0.8008008012 0.0005148674 0.5472190450 0.8316362934 0.0945113337 0.4998116443 0.7781983663 -0.3802573115 0.0644271661 -0.3623475319 0.9298136407 0.7572561882 -0.0105256876 0.6530331349 0.1054410736 0.2945988927 0.9497861193 -0.1809022802 0.8143274826 -0.5514935322 -0.1033724327 0.6607670472 -0.7434386656 -0.0957086930 0.2005464505 -0.9749979319 -0.2508218922 0.5934682793 0.7647769478 0.4792951250 -0.4879403826 -0.7295137875 0.2611674957 -0.8734867326 0.4108679437 -0.4050256012 0.2950858689 -0.8653777166 -0.5610665183 0.6174398780 -0.5513368835 0.6796849485 -0.6364837618 -0.3645775524 0.1152699880 -0.2602729664 -0.9586296536 0.2785764867 -0.2555806128 -0.9257827453 -0.1151292972 -0.6947394333 0.7099875807 -0.1319869627 -0.1364207760 -0.9818191348 0.1889913277 -0.3259881365 0.9262904582 0.1771369259 -0.3355327235 0.9252244598 -0.3539046084 0.6917226792 -0.6295008048 -0.5815557372 -0.3308918503 0.7431712508 -0.6850131159 -0.6446791406 0.3393314557 -0.3519582967 0.0409994684 -0.9351173194 0.2481272654 0.1400638755 -0.9585483665 0.6234784987 0.3239714334 -0.7115596054 0.9444712658 -0.0566724640 0.3236699861 0.9482902179 0.0855586648 0.3056556518 -0.4734707488 0.6020926403 -0.6428918280 -0.5584131087 0.4656548373 0.6865423312 -0.4312462670 0.6832493568 0.5892342265 0.1343171819 0.8425405960 -0.5216169463 -0.6365649897 -0.7534995821 0.1643879365 0.0926928000 -0.3335346802 0.9381698471 0.0489966874 -0.2190342897 0.9744861746 0.3163067119 0.5396098926 -0.7802379303 0.7737781439 0.4542856509 0.4414656629 0.3336563342 0.5760557378 -0.7462125955 0.2731789279 0.6214747102 -0.7342632075 0.8864808013 0.4479914661 -0.1159975655 -0.3028964575 -0.8435931337 -0.4434009031 -0.2974535432 0.9482576838 0.1110349256 -0.3437136657 0.8246707746 0.4491982074 -0.8803512876 -0.1147577358 -0.4602306731 -0.2751922305 -0.8528873194 -0.4436805797 -0.0722227755 -0.8079357044 -0.5848279818 -0.2014299722 0.9574082380 0.2068705685 -0.5934944955 0.7299764005 0.3389671643 -0.3922055623 -0.5327737761 0.7498845914 0.3396649827 0.5385652967 -0.7710869735 0.3862917244 0.5406384111 -0.7473210903 0.3396502118 0.5385644149 -0.7710940958 0.3396462356 0.5385641775 -0.7710960131 0.1126250911 -0.4601037573 0.8806929779 0.1108321503 -0.4528072855 0.8846930522 -0.0838036685 -0.9413539567 -0.3268480892 0.7067011171 -0.6148226171 -0.3500952451 0.4599555468 -0.3548449419 -0.8139569781 -0.2235080109 0.1352036712 0.9652793049 -0.2231810110 0.1347981179 0.9654116758 -0.2230414679 0.1346254503 0.9654680169 -0.2232280178 0.1348564093 0.9653926667 -0.2225767032 0.1340487483 0.9656554998 -0.2236687010 0.1354029718 0.9652141459 -0.2227697115 0.1342883911 0.9655776943 -0.2224667315 0.1339123905 0.9656997593 -0.1802091176 0.0818517913 0.9802167914 -0.2226752590 0.1341822887 0.9656142306 -0.2226600154 0.1344154398 0.9655853184 -0.2230733181 0.1349948143 0.9654090816 0.1669250621 -0.3145202285 -0.9344586933 -0.2215191981 0.1354746237 0.9656996796 0.2534588527 -0.2169816870 -0.9426969595 0.2505239901 -0.2101603955 -0.9450239883 0.4823441941 -0.3851708192 -0.7867575983 0.7374707122 0.4353338739 0.5163539163 0.4636727322 0.3371316268 -0.8193594227 0.8230589453 -0.5670160225 -0.0326619467 0.2197721857 -0.1326040623 -0.9664969473 0.2253271261 -0.1300547379 -0.9655637997 0.2248738293 -0.1264214233 -0.9661518435 0.2037518025 -0.0979204545 -0.9741133340 0.2245786234 -0.1254487648 -0.9663472716 0.1756579413 -0.7374314730 0.6521802744 0.1958850197 0.1959953219 0.9608407219 -0.0155805684 0.4234317225 -0.9057940286 -0.0707358979 0.3607697549 -0.9299686106 -0.1004568774 0.3256067524 -0.9401535293 -0.0743126128 0.1549470937 -0.9851238672 -0.3376729779 0.8585540794 0.3858261950 0.1560713140 -0.5231892923 0.8378035028 -0.3066350510 -0.9367091601 -0.1689701007 0.9259020004 0.1042736726 -0.3630874369 0.5340544381 0.5979773132 0.5976696329 -0.6750346842 -0.6277336728 -0.3876578533 -0.9195367407 0.3290385643 -0.2149088310 0.0689869738 -0.6885771951 0.7218741191 0.0714519865 -0.6715866445 0.7374727063 0.0633613599 -0.3691993938 0.9271877618 0.4348771145 0.8794785760 -0.1933890631 -0.3197018157 -0.5168039297 -0.7941690294 0.2726896940 0.5234800599 -0.8072229913 -0.0187468457 0.0079264773 0.9997928419 -0.0187567497 0.0079567441 0.9997924157 0.0753932554 -0.0381796613 0.9964226867 0.2195179504 -0.5921845782 -0.7753252832 -0.1204665841 0.3287109967 -0.9367160097 -0.1204797684 0.3287218632 -0.9367105007 0.2194894008 -0.5919966231 -0.7754768863 -0.1204914375 0.3287314803 -0.9367056247 0.1357793365 -0.0261329691 0.9903943859 0.2192790362 -0.5917305362 -0.7757394387 0.2181287065 -0.5917915791 -0.7760171353 -0.3180815867 -0.8153343804 0.4837912280 -0.2059573320 0.1752071614 0.9627481644 -0.8647635696 0.4792087355 -0.1501431198 -0.0545656324 0.3320568634 0.9416797923 -0.6879650128 0.4288422486 -0.5854899376 -0.0387354043 -0.7615572300 -0.6469390651 0.1346901929 -0.2781117345 -0.9510585760 0.6640581737 0.3246307167 -0.6735292420 -0.2386542004 -0.2963240006 0.9247898460 -0.1923024402 -0.3520425708 -0.9160162661 -0.1771634322 -0.3510684745 -0.9194368083 -0.1801670696 -0.3565764885 -0.9167295320 -0.8774163361 0.4309654443 0.2107352815 -0.5001364695 0.4190768863 -0.7577849795 0.5889325586 -0.5446859577 -0.5970558172 0.2174723659 -0.1596871571 -0.9629152517 0.9732605920 0.2296998373 0.0013434599 -0.6193126853 0.5275508938 -0.5814996580 0.9097929211 -0.4077814578 0.0774023482 0.6530829890 0.0527742947 -0.7554452219 0.1091072145 0.9771304733 0.1825148046 -0.6847297868 -0.2364528888 0.6893730126 -0.6894294377 -0.2314226270 0.6863895527 -0.6822135575 -0.2397782760 0.6907177718 -0.6643648504 -0.2351661081 0.7094478467 0.4877491495 -0.4803079727 -0.7289753209 0.7528399071 -0.6492570856 -0.1081541079 0.0332299641 0.4261974292 0.9040196463 -0.6546583312 0.4064180642 0.6373749497 -0.0726599454 -0.4846368636 -0.8716924015 -0.5033503553 -0.6987145029 0.5083664655 0.3390161668 0.2884291839 -0.8954756526 -0.2373874157 0.0128336066 -0.9713302803 -0.2615761136 -0.0587907266 -0.9633906722 0.7522876283 0.2694489833 0.6012159094 0.1439983224 -0.6094728588 0.7796199828 -0.4401238102 0.8365778145 0.3262339529 0.2696942043 0.7976535524 0.5394569923 0.2716263174 0.8386189451 0.4721624812 0.2090920829 0.6355650959 -0.7431941265 -0.3845821274 0.7536673750 -0.5329935038 -0.2919764705 0.6684382665 0.6840614187 -0.2518896258 0.6666774488 0.7014932613 -0.8247835406 0.4462138487 0.3473115495 -0.1772984219 0.9573738070 0.2280365395 0.3002272158 0.5922466566 -0.7477349240 0.2806559099 0.5827389633 -0.7626582202 -0.2984431857 0.4463297439 -0.8436358365 -0.3000451932 0.4872085669 -0.8201223655 -0.1923647734 -0.5414379596 0.8184379817 -0.1957684586 -0.5312658142 0.8242762554 -0.4403258916 0.6284696617 -0.6412012114 0.0843762009 0.9896460151 0.1161095234 -0.6559064048 -0.6631169481 0.3606420680 -0.6477195930 -0.7391508202 -0.1847035296 0.6216451737 -0.6940051839 -0.3631997835 -0.4377091444 0.6553985875 -0.6155188026 -0.1216649475 0.3523868696 -0.9279122451 -0.2329619422 0.2568588498 -0.9379510994 -0.4786227760 0.7628193128 -0.4347722786 -0.1737013099 0.6567030479 0.7338725788 -0.7734247006 -0.6004228388 -0.2032403678 -0.7640779778 -0.6230882747 -0.1671701102 0.2986762528 0.2188551212 -0.9289213809 0.2974135456 0.2166322557 -0.9298471104 -0.2439378284 0.3579321148 -0.9013206627 0.3978154462 0.4542157618 -0.7971392052 0.3423492954 0.4963731037 -0.7977535345 -0.3679619235 0.7958039283 0.4809367219 -0.3649434627 0.8040832921 0.4693253972 -0.8854927516 0.3731738329 0.2768463061 -0.8869883822 0.3678066624 0.2792308525 0.0322043793 0.0956243150 -0.9948964109 0.0299044420 0.0983259253 -0.9947048491 0.0681941849 0.0531648926 -0.9962545093 0.0336710183 0.0939398136 -0.9950083286 0.0706247569 0.0502737925 -0.9962352581 0.0315006337 0.0964971203 -0.9948346676 0.0697331954 0.0513370858 -0.9962438382 -0.9735276026 0.2172841999 0.0709336545 -0.4238720713 -0.7489783249 -0.5092778574 0.4890297670 -0.6031940944 0.6300847336 0.0011451961 0.0684565014 -0.9976534448 0.1759361287 -0.2961187707 -0.9388078356 0.5084307358 -0.3526573886 -0.7855768283 0.1803346535 -0.9835924788 -0.0050247844 0.9711436709 -0.0971741876 -0.2178007064 -0.2651230504 -0.9614109297 0.0734764756 -0.2908633185 -0.5680925256 0.7698502531 0.6003658803 -0.1235723786 -0.7901206724 0.4877576307 0.4212435823 0.7646216960 -0.0680040571 -0.9155797466 -0.3963447688 -0.1219201201 0.3803895455 -0.9167547535 0.3198500047 -0.2090768067 0.9241119323 -0.6040766812 -0.0347630182 -0.7961676305 -0.2391599944 -0.6359414114 0.7337445184 -0.2315492711 -0.6370173853 0.7352508319 0.8045625322 -0.5925193292 0.0399997049 0.5654684708 -0.0073223034 0.8247374081 0.0996591446 0.7560944382 0.6468301596 -0.1534774876 0.6421885781 -0.7510249603 0.7465895324 0.1815147105 -0.6400441234 0.1414886872 -0.5278156046 -0.8374912769 -0.6001543238 -0.5560311967 -0.5750166049 -0.2655281954 0.5367713789 -0.8008565816 -0.8479730741 -0.3158350723 -0.4256640374 -0.7710798472 -0.1248551215 -0.6243773441 0.3590316325 0.2544340730 -0.8979752721 0.3518004725 0.2536806264 -0.9010452638 0.3589465430 0.2544591887 -0.8980021718 0.4646798456 -0.0593413189 0.8834881148 -0.0937014761 -0.1858340630 -0.9781031308 -0.0848816319 -0.1981143332 -0.9764967074 -0.1139167287 -0.6161851574 -0.7793194664 0.0885998880 0.1653767526 0.9822426327 0.7157447059 -0.2994610442 -0.6308982478 0.8781522656 0.0218784766 0.4778806657 0.4081594927 0.9091495437 -0.0827824602 0.9198093943 -0.1472152533 -0.3637009036 0.4277930706 0.5480247487 -0.7187920169 0.4394582166 0.5374395334 -0.7197466386 -0.0485465217 -0.6506536287 0.7578212788 -0.0481447912 -0.6506583708 0.7578428357 -0.0497872916 -0.6508238276 0.7575945955 -0.0495893804 -0.6508273485 0.7576045511 -0.0496815871 -0.6508522366 0.7575771288 0.3639479058 -0.0156273690 -0.9312881977 0.9432770940 0.2503036931 -0.2181201164 -0.4285771694 0.5269011742 0.7339596463 -0.4289681957 0.5264755403 0.7340366425 -0.4345315786 0.5250720720 0.7317661009 -0.7262256700 0.3025834924 0.6172839754 -0.0362795328 0.2405687795 -0.9699538432 0.0041120157 0.2892683818 -0.9572392045 0.0163351662 0.3096374859 -0.9507143576 0.2013692802 0.3973489511 -0.8953011918 0.1078187760 0.8494454622 -0.5165438202 -0.3692998717 -0.1432366880 -0.9182052363 -0.2699980545 0.0784230385 -0.9596618559 -0.3530756584 -0.2886955976 0.8899395661 -0.3215940874 -0.9253118222 -0.2009359964 0.2932616456 -0.5837320788 -0.7571356995 -0.0298850956 -0.6451742832 -0.7634507353 0.2668487242 0.3719976683 -0.8890497698 0.3191462002 0.1144503214 -0.9407692740 -0.3964220705 0.0135360906 -0.9179685813 -0.3971714124 0.0123284149 -0.9176616366 -0.3732150258 0.0502572592 -0.9263826166 -0.3734325349 0.0499659252 -0.9263107190 0.1842436287 -0.3894840026 0.9024170305 -0.2693644192 0.0358336362 -0.9623714253 -0.2119828018 0.0192433097 -0.9770839200 -0.0860965177 -0.1622312180 0.9829895328 0.6306191677 -0.6960648857 -0.3432391879 0.6343489855 -0.6934087037 -0.3417392781 -0.2452333893 0.8945681720 -0.3736420351 -0.4035275988 0.9128073138 0.0628353788 -0.5503000069 -0.7400328029 0.3866799102 0.1735311496 0.3615625028 -0.9160564921 0.1744387204 0.3463886655 -0.9217299091 0.3688346941 -0.7351873058 -0.5687359615 -0.4895691872 -0.5444971099 -0.6810616039 0.0874886819 0.4826746130 0.8714189282 0.0729878925 0.4577583788 0.8860756368 0.2545709319 0.7718884074 -0.5825649553 0.2177888847 0.8018518178 -0.5564186049 -0.1614276401 -0.9838717872 0.0770546776 -0.0928323976 0.9011129205 0.4235299876 -0.4452285242 -0.8639934706 -0.2351315464 0.7007692638 -0.1018091615 0.7060859250 0.7781008043 -0.0149253975 0.6279620776 -0.1273719552 -0.6337193572 0.7630046929 -0.1228595012 -0.6298760257 0.7669170328 -0.1273407193 -0.6337444121 0.7629890965 -0.1228293079 -0.6299754105 0.7668402332 -0.1228863455 -0.6300233273 0.7667917273 -0.0929852908 -0.6040552752 0.7914991852 -0.1219842707 -0.6310560388 0.7660862312 -0.0935274530 -0.6037217022 0.7916897889 -0.0934060405 -0.6036262433 0.7917769067 -0.0310406743 0.6017008321 0.7981181524 0.5127572206 0.8092026545 -0.2868293862 0.9208302433 0.2509973034 0.2984493536 -0.0789389211 0.2649869601 -0.9610153785 -0.0745052539 0.2682508279 -0.9604636695 -0.0701818039 0.2713602657 -0.9599156841 0.3275293134 0.4936505572 -0.8056262633 0.6858855142 0.7189538275 0.1125453481 -0.1523936103 -0.6449725789 0.7488568355 -0.1524417466 -0.6449505562 0.7488660053 -0.1524552094 -0.6449482129 0.7488652829 -0.1524071071 -0.6449537307 0.7488703218 -0.1524377422 -0.6449502245 0.7488671061 -0.1524577120 -0.6449479030 0.7488650402 -0.1524544610 -0.6449482774 0.7488653796 -0.1523879502 -0.6449559367 0.7488723205 -0.1524029823 -0.6449542057 0.7488707522 0.0626363598 0.755246533