<?xml version="1.0"?>
<VTKFile type="UnstructuredGrid" version="0.1" byte_order="LittleEndian">
  <UnstructuredGrid>
    <FieldData>
      <DataArray type="Float32" Name="TIME"  NumberOfTuples="1" format="ascii"> 5.9999999999 </DataArray>
      <DataArray type="Int32"   Name="STEP"  NumberOfTuples="1" format="ascii"> 600000 </DataArray>
    </FieldData>
    <Piece NumberOfPoints="399" NumberOfCells="399">
      <Points>
        <DataArray type="Float32" NumberOfComponents="3" format="ascii">
 0.4248652778 0.2068255318 0.0759430836 0.5299832464 0.1286328869 0.0400907908 0.5050734096 0.1472907566 0.1825917790 0.6403307820 0.1082663889 0.1124597160 0.5396124860 0.3646967365 0.2040008893 0.5528625860 0.3591025300 0.2072268556 0.5678908827 0.4472844687 0.1939271852 0.7522015585 0.1787391858 0.1457377553 0.7585133370 0.1855916968 0.1501548099 0.6781371273 0.4551491141 0.1694661840 0.8496088735 0.2321593950 0.1150671487 0.7816290838 0.3733979743 0.0369727054 0.7953317216 0.3703150018 0.0373492323 0.8168259535 0.3857437784 0.0431750131 0.8042876334 0.3963507238 0.2240357576 0.8177014522 0.3880444401 0.2261942253 0.8970056879 0.3686630989 0.1723159326 0.7489580429 0.3245513359 0.6726908446 0.7715940600 0.2992916048 0.6582653349 0.7860265522 0.3638990931 0.5621533715 0.8677399876 0.6052371017 0.5111382461 0.9118156733 0.5556474133 0.5587200189 0.8933347448 0.6065762261 0.4947006196 0.9262233975 0.5446446763 0.5458338280 0.9417328794 0.3093605087 0.5254684469 0.9349241872 0.3343189040 0.5344050149 0.9466582751 0.4740598888 0.4508200805 0.2426831916 0.7997986795 0.0414070119 0.2550043618 0.8173396042 0.0914574586 0.0745409516 0.9091237756 0.1097906131 0.1543237728 0.7223197475 0.0815085414 0.0388483618 0.8885768691 0.1662307781 0.0554835080 0.8047840411 0.1553463645 0.0622456490 0.7985059397 0.1588806417 0.1716660135 0.7198413234 0.1453822889 0.1846705858 0.8263779263 0.1958310216 0.5696633366 0.7614166192 0.2455277048 0.6836965562 0.7584636549 0.2617672584 0.6518277352 0.7389199778 0.1620810195 0.7064506962 0.8129151120 0.2796415284 0.6573959469 0.7424565061 0.1621262871 0.6559156541 0.7439888813 0.1560630311 0.6050552616 0.8504653295 0.2446686385 0.6094921382 0.8548464632 0.2417821138 0.5207966988 0.7623145449 0.0984627070 0.7326515129 0.8581097576 0.2193667648 0.7273904727 0.8568457863 0.2066721405 0.5647770535 0.8549312470 0.1613298550 0.5655447063 0.8555399585 0.1539491781 0.1730876848 0.4807040840 0.3236712925 0.1676973918 0.4846861645 0.4415935108 0.1372092131 0.6603891055 0.2434474466 0.0843619281 0.6890417527 0.2636713541 0.1610016159 0.6613729425 0.2414231975 0.2576845958 0.4522146720 0.3447874269 0.2908205017 0.4616814113 0.4187226791 0.2909881807 0.5655097449 0.4523295323 0.3086334906 0.4589965224 0.2813329358 0.1182083904 0.7733040752 0.4080898004 0.2713208999 0.7854265004 0.2555512097 0.4240756468 0.5343447085 0.4164829354 0.4308564026 0.5455606847 0.4205675788 0.2460004741 0.8876089148 0.3715553248 0.3711229627 0.8402722991 0.4486938194 0.3884537932 0.8571714782 0.4473816902 0.4440473477 0.9114116631 0.2749315338 0.5616925423 0.7792381777 0.4616577996 0.7554644090 0.3393622369 0.5253685722 0.7491434875 0.3251164869 0.5221873954 0.7310381529 0.1923237163 0.5211112513 0.6605265043 0.0750018359 0.2089067032 0.6490922138 0.1078240727 0.2421729469 0.6082328477 0.1071851208 0.3161806480 0.5368086022 0.0942203350 0.3297718794 0.6497675121 0.8867017298 0.4452708630 0.6558290344 0.9007448634 0.3525089475 0.6572084199 0.9097055124 0.3464138703 0.7437355458 0.9446354721 0.5283423802 0.6975299233 0.9102990842 0.3310050928 0.7118971688 0.2412329262 0.2823343222 0.6923347234 0.1618255423 0.4376722641 0.7639627009 0.3793137330 0.3440302782 0.7707361736 0.3872260255 0.3523741475 0.5690857198 0.3189437289 0.3113897013 0.5335521423 0.2357775965 0.4478721653 0.4819231707 0.2672513979 0.3471248902 0.4709354388 0.3273644413 0.5039597016 0.4582443655 0.3355683460 0.5055514245 0.3861283794 0.4139791623 0.4441339540 0.5795579094 0.5972597825 0.5628805442 0.1272838614 0.2954926515 0.0794084230 0.1210210802 0.2920261055 0.0845420920 0.1781399244 0.3772365072 0.0528340624 0.1491834043 0.4388049096 0.0568122908 0.0950507901 0.4146557861 0.1045548527 0.2077567443 0.4386276820 0.0527659477 0.1964206971 0.4344288346 0.0567133405 0.2718642096 0.5419341444 0.0599528563 0.1116348432 0.4730200408 0.1348036755 0.1123436484 0.4827928677 0.1420340293 0.1047360329 0.4920116462 0.1450391302 0.0995439029 0.5073286129 0.1534461223 0.1196633323 0.6091648721 0.0768635445 0.1243072886 0.6141219615 0.0785442695 0.0731065425 0.6660888715 0.2039462085 0.0764847990 0.6738821422 0.1942227043 0.1368994179 0.3952855478 0.2410308525 0.2422137395 0.3041293116 0.2229847957 0.2365971176 0.2958153459 0.2228489878 0.2487073707 0.3044901649 0.2244123472 0.2293360639 0.2902095042 0.2219686081 0.2433837135 0.2948296281 0.2245378086 0.2197450205 0.2869285475 0.2202325751 0.2548637473 0.3066658016 0.2255150929 0.2368439481 0.2880814868 0.2239874881 0.2496218571 0.2953277140 0.2258880696 0.2609604811 0.3107898948 0.2263364047 0.2673071516 0.3172673889 0.2268950115 0.2743130590 0.3269069000 0.2271859241 0.0603284661 0.3238589329 0.2405527331 0.2818537140 0.3248944060 0.2291698288 0.2734198155 0.3270488628 0.3139750592 0.2819441868 0.3344277908 0.3145361365 0.0744066678 0.2508622548 0.2704874348 0.0724373554 0.1488438659 0.2300768618 0.1130175124 0.0685979889 0.2994124378 0.1289117080 0.0610856485 0.3107430103 0.2422541491 0.1318700395 0.3407273181 0.2508586685 0.1370574210 0.3419972667 0.2667444975 0.1556162194 0.3433602515 0.2741736097 0.1652456546 0.3438921676 0.2824447311 0.1696901650 0.3451598588 0.8679171653 0.1866464619 0.4388067529 0.8336793787 0.1057843998 0.4125786825 0.7587804630 0.1533923889 0.5977288853 0.7548258437 0.1422556316 0.5935157843 0.7470111244 0.1331163400 0.5912825567 0.2973203120 0.2801235668 0.5031617550 0.2898213372 0.2700269741 0.4140877225 0.2535000816 0.3450426013 0.3698640857 0.3102821445 0.3803418168 0.4286204820 0.6312885180 0.7388036941 0.5144372787 0.6934339822 0.6467633047 0.3835482490 0.7179963867 0.8411238282 0.5228715360 0.7601125620 0.7119198285 0.4431577734 0.7150689481 0.7763956122 0.3773374508 0.7224928511 0.7765644907 0.3764740059 0.7217498493 0.7830364228 0.3798922180 0.5481885384 0.5178814038 0.2034166591 0.6016774480 0.5231821211 0.2544422205 0.6024653374 0.5427591914 0.2596857780 0.6200442501 0.5473507990 0.0836205466 0.6262684956 0.5623858507 0.0836989219 0.6399074367 0.5592329505 0.0832589777 0.7413571472 0.6640251062 0.2510474277 0.8187180001 0.4748240607 0.2427191376 0.8265622227 0.4850385035 0.2453616549 0.7524098459 0.6663462274 0.2524263425 0.8342698853 0.4949643903 0.2478055999 0.7588461859 0.7526343003 0.1137501415 0.7644311085 0.6690107484 0.2538325185 0.7782263700 0.6723035643 0.2552959957 0.8026222478 0.7665644397 0.1615342372 0.8794317089 0.6238432864 0.0942665234 0.9217435059 0.5592538171 0.1912947293 0.8981110233 0.6354674582 0.0942530009 0.9265946066 0.6781197844 0.2684893302 0.9125156383 0.7262494691 0.2334572397 0.9396911100 0.6711487471 0.2630043277 0.3658526230 0.5765587307 0.0833473711 0.4803352546 0.7324424292 0.0279605291 0.4430330579 0.6659637560 0.0961072978 0.4495918166 0.6639638491 0.0952668672 0.4523358269 0.6598790809 0.0965933577 0.3894151863 0.1711526861 0.4216738810 0.3343308639 0.0835967955 0.4717569222 0.1711629768 0.1840697212 0.3885514314 0.2163987208 0.1306968459 0.4587594137 0.1403172824 0.0872420440 0.4244186418 0.9285702825 0.4500574898 0.5810548735 0.2542665697 0.1549643226 0.0768240127 0.2905346285 0.1241732565 0.1289606966 0.3212501967 0.0796917071 0.1134331464 0.3626137014 0.1664949264 0.0989913332 0.3618117540 0.1720328821 0.1001077657 0.3650574182 0.1699175334 0.1024755324 0.3680820566 0.1736261737 0.1065979101 0.3291204388 0.2036824714 0.1572357003 0.3370104842 0.2091297039 0.1616362050 0.0617468761 0.1503414635 0.5057995819 0.1851546059 0.1663330541 0.5386187689 0.1499010135 0.2658897697 0.5712991859 0.1483449767 0.2522235959 0.4787905479 0.0408595401 0.9382736786 0.1632800809 0.1579122973 0.9508840052 0.1726202522 0.1685813733 0.9468864004 0.1683301064 0.4623076986 0.4848416873 0.1661080476 0.4577480753 0.4752237965 0.1662387220 0.5258200743 0.3954505371 0.2669791651 0.8807307488 0.5610009336 0.0484159964 0.8724850734 0.5657494441 0.0455653340 0.8788724181 0.5639575125 0.0436099444 0.9528860291 0.5564840028 0.0824625543 0.0848630785 0.9509149969 0.2972594135 0.0909322605 0.9527348439 0.2984104627 0.1709236876 0.9291519739 0.3642661709 0.7712013388 0.0774326454 0.2849990001 0.7320445553 0.0975392113 0.3049635080 0.7245536630 0.0995462374 0.3031239866 0.8351613787 0.1252679703 0.3223784545 0.8416795368 0.1387116495 0.3278999024 0.7707171551 0.1908863028 0.2038470203 0.7747343280 0.1947193065 0.2066775261 0.3426296801 0.1902175997 0.5344587099 0.3550249257 0.1906345120 0.5362025069 0.4140013243 0.2829445123 0.5664152517 0.9549023475 0.6061793222 0.3610205529 0.8663842566 0.6117987875 0.4001128619 0.8999178995 0.4790676568 0.3659224343 0.9022708507 0.4738060718 0.3628364570 0.8960231156 0.4718838554 0.3635570171 0.9027218366 0.3807537860 0.2926235211 0.8058021435 0.0773933113 0.5900185822 0.3432517095 0.9113997927 0.0686959497 0.3482570461 0.9041870079 0.0728549500 0.2973777091 0.8399044435 0.0897858136 0.2988441201 0.8343474615 0.0890977192 0.8006527415 0.6605805431 0.3595349816 0.6844029385 0.6155010256 0.3399599416 0.6751679872 0.6201205877 0.3384223891 0.1505759148 0.9040901100 0.4534405340 0.1568612813 0.9069190874 0.4543829559 0.1183445151 0.9135207618 0.2299883300 0.1206158024 0.9131854710 0.2376249127 0.2538573629 0.3186009566 0.1147667914 0.2556201542 0.3240393083 0.1154069786 0.2607361851 0.3190394879 0.1151263625 0.2621688139 0.3245776734 0.1156876181 0.2673283712 0.3190368854 0.1154435587 0.2631777824 0.3301138416 0.1161664163 0.2685363243 0.3247194751 0.1158621297 0.3468118238 0.2670683152 0.0577853696 0.2798044293 0.4118688053 0.0597692878 0.1971447765 0.4195476174
[...]
      <PointData Scalars="overlap">
        <DataArray type="Float32" Name="overlap" format="ascii">
 0.0002252851 0.0000175554 0.0002057674 0.0000271548 0.0000865142 0.0000331068 0.0000067702 0.0000516398 0.0002478317 0.0002507062 0.0001091014 0.0000484698 0.0000727625 0.0004921731 0.0000268444 0.0002310337 0.0000930743 0.0000060946 0.0000060698 0.0001283387 0.0000224964 0.0000489655 0.0000315690 0.0000307015 0.0000235822 0.0000097668 0.0001205727 0.0000833774 0.0001926356 0.0001202097 0.0000299079 0.0000288067 0.0000077383 0.0000869360 0.0002829933 0.0000289924 0.0001988674 0.0000834196 0.0000473555 0.0000985486 0.0001043870 0.0001688629 0.0000243638 0.0000128661 0.0001826447 0.0000522760 0.0000013701 0.0000530508 0.0001661668 0.0000600291 0.0000789520 0.0002213892 0.0000634976 0.0000340887 0.0000157423 0.0000085543 0.0000551296 0.0002887730 0.0001531542 0.0000508151 0.0001168445 0.0000163518 0.0000950707 0.0000951032 0.0000264252 0.0003200902 0.0000192024 0.0000905706 0.0000912030 0.0000192288 0.0000291759 0.0000605651 0.0000071387 0.0000864964 0.0000181164 0.0000016262 0.0000080343 0.0000089255 0.0000386302 0.0001855436 0.0000087364 0.0000307634 0.0002616735 0.0001144914 0.0000377533 0.0001250579 0.0000100491 0.0000136886 0.0000040536 0.0000156719 0.0000165849 0.0000396862 0.0000069696 0.0000392914 0.0000273394 0.0001009350 0.0001227349 0.0000460310 0.0000055960 0.0000080697 0.0000275294 0.0000244508 0.0000818140 0.0000440932 0.0000532041 0.0000487401 0.0000603289 0.0000762233 0.0000622232 0.0000974030 0.0000385610 0.0000569194 0.0000139091 0.0001102996 0.0000158396 0.0000254051 0.0001250115 0.0001382416 0.0001232010 0.0000799788 0.0001380684 0.0000155800 0.0000301498 0.0000371674 0.0000323712 0.0000591845 0.0000282965 0.0000085436 0.0000405994 0.0001086473 0.0000464270 0.0000187130 0.0000023995 0.0000395223 0.0000015814 0.0000123725 0.0000048951 0.0000334320 0.0000390959 0.0000604301 0.0000185195 0.0000167087 0.0000083348 0.0000068208 0.0000119973 0.0000224008 0.0000203249 0.0000126884 0.0000104109 0.0000259784 0.0000088328 0.0001698778 0.0000139561 0.0000453999 0.0000111057 0.0000460597 0.0001709428 0.0000240947 0.0001046177 0.0002024605 0.0000361707 0.0000388825 0.0001536164 0.0000027521 0.0000400037 0.0002875017 0.0000075831 0.0000179344 0.0000144345 0.0000430397 0.0000045035 0.0000129027 0.0000079035 0.0000747166 0.0000377512 0.0000593197 0.0000611188 0.0000359067 0.0000600059 0.0000173446 0.0000350663 0.0000002653 0.0000569799 0.0000125315 0.0000176317 0.0000518933 0.0000191500 0.0000531161 0.0000302358 0.0000300111 0.0000204987 0.0000077566 0.0000284067 0.0000114080 0.0000228519 0.0000145021 0.0000044333 0.0000259491 0.0000157506 0.0000057294 0.0000675421 0.0000369884 0.0000020229 0.0000128918 0.0000076850 0.0000005181 0.0000400024 0.0000106880 0.0000494105 0.0000639101 0.0000373563 0.0002481525 0.0000715946 0.0000078650 0.0000103975 0.0000073808 0.0000071190 0.0000118131 0.0000364761 0.0000337123 0.0000538076 0.0000648122 0.0000026823 0.0000081365 0.0000881635 0.0000310411 0.0000607828 0.0000853845 0.0000026480 0.0000074598 0.0000562841 0.0000903135 0.0000005482 0.0000288891 0.0000795810 0.0001168597 0.0003505934 0.0003212856 0.0000395106 0.0000252647 0.0001374282 0.0001622098 0.0000228752 0.0000387157 0.0000069497 0.0000152702 0.0000602925 0.0000175818 0.0000222478 0.0000123474 0.0000312838 0.0000744952 0.0000535121 0.0000057790 0.0000332811 0.0000231201 0.0000206728 0.0000334148 0.0000189400 0.0000230891 0.0000277193 0.0000619741 0.0000030643 0.0000056366 0.0000215943 0.0000016460 0.0000080061 0.0000689844 0.0002009986 0.0001002926 0.0000704547 0.0000618230 0.0000254017 0.0000530194 0.0000844388 0.0000197691 0.0000510482 0.0000227544 0.0001328744 0.0000052304 0.0000218329 0.0000399252 0.0000060740 0.0000131821 0.0000072079 0.0000121082 0.0000693320 0.0000462442 0.0000084770 0.0000061483 0.0000201422 0.0000510393 0.0000427228 0.0000047404 0.0000223129 0.0000264221 0.0000096105 0.0000018375 0.0000133885 0.0000581740 0.0001162449 0.0000070557 0.0000208445 0.0000299987 0.0000081731 0.0000233891 0.0000218131 0.0000727461 0.0000746072 0.0000794119 0.0000091966 0.0000793158 0.0000033431 0.0000340612 0.0000165187 0.0000032116 0.0000092499 0.0000222595 0.0000323843 0.0000314932 0.0000290324 0.0000209632 0.0000060638 0.0000220159 0.0000136555 0.0000218847 0.0000040465 0.0000588244 0.0000080921 0.0000054142 0.0000114167 0.0000607984 0.0000874439 0.0000141817 0.0000075922 0.0000050743 0.0000504496 0.0000601829 0.0000344723 0.0000375641 0.0000593937 0.0000512185 0.0000145603 0.0000059771 0.0000103145 0.0000045802 0.0000062977 0.0000086326 0.0000098016 0.0000055374 0.0000459220 0.0000166781 0.0000076746 0.0000326201 0.0000233806 0.0000007380 0.0000053882 0.0000594738 0.0000460968 0.0000198228 0.0000226241 0.0000418935 0.0000146337 0.0000078949 0.0000069604 0.0000335479 0.0000269913 0.0000106279 0.0000221486 0.0000403913 0.0000195109 0.0000137683 0.0000140273 0.0000066069 0.0000152015 0.0000080314 0.0000100589 0.0000156003 0.0000151735 0.0000045915 0.0000049280 0.0000517311 0.0000115739 0.0000605302 0.0000295610 0.0000315487 0.0000093689 0.0000184659 0.0000045064 0.0000027925 0.0000039677 0.0000650029 0.0000060063 0.0000313248 0.0000111007 0.0000235849 0.0000132265 0.0000245257 0.0001356207
        </DataArray>
        <DataArray type="Float32" Name="contact normal" NumberOfComponents="3" format="ascii">
 0.9747553881 -0.1893142247 -0.1183725378 0.1555740825 0.9312612516 0.3294680351 -0.0006371273 0.6164443813 -0.7873981958 -0.2103071631 0.7157942431 -0.6658900049 0.1103635428 -0.0480296870 -0.9927300930 0.2338415923 -0.1107107578 -0.9659509500 0.5992060972 -0.7720065263 -0.2120329606 -0.3785341987 0.6351393435 -0.6732829084 -0.3288768714 0.6782702594 -0.6571068853 -0.1641726324 -0.9501202193 -0.2651771403 -0.8558114209 0.4668476275 0.2228005935 -0.1400031748 -0.4491059092 0.8824414957 -0.1479992203 -0.4748814211 0.8675159173 -0.1169576350 -0.3830529915 0.9162921572 -0.0083251679 0.0626803667 -0.9979989295 0.0267985562 -0.0943973268 -0.9951738452 -0.8319754303 -0.0603934355 0.5515156538 -0.4684036717 0.3948229918 -0.7903877564 -0.3784747518 -0.4904624041 -0.7849863007 0.4266461991 -0.1496874446 0.8919454522 0.4063593391 -0.1798452517 0.8958391446 -0.6620754928 -0.1481342869 -0.7346511246 0.5876633902 -0.7239372049 0.3613400934 -0.6340898909 -0.2069771862 -0.7450439280 -0.0676089977 -0.3232779296 -0.9438858001 -0.7624910965 0.1937180313 -0.6173173026 0.3124818560 -0.0294267827 0.9494678268 -0.7342368318 -0.5295583267 0.4248108444 -0.7988546735 -0.6010923629 0.0227855640 -0.0013698904 -0.9554466791 0.2951605781 0.3770212951 0.7929131037 0.4786896208 0.3335692082 -0.6196509191 -0.7104676782 0.7209805899 0.5217105505 -0.4560757508 0.7537181455 0.4852886929 -0.4431747304 0.2852040198 0.6836229949 -0.6718022536 -0.4732841197 -0.4351852417 -0.7659085764 0.2186622924 -0.1884346512 -0.9574336448 -0.6235801523 0.7261395452 -0.2896017170 -0.5201695602 0.6631041353 0.5382532251 -0.1223114398 -0.0632331491 -0.9904753811 -0.3277451964 0.7301528981 0.5995496907 -0.7229386358 0.6861784023 0.0807398852 0.4062267650 -0.7683042717 -0.4946598443 0.4403016970 -0.7260605553 -0.5281765668 0.1714136145 0.2531711990 0.9521143402 -0.4363234701 -0.6609521356 0.6105441048 -0.9456348375 -0.3248598624 -0.0155185051 0.6139395491 -0.7892924965 0.0097767530 0.5989307126 -0.8008006848 0.0005145755 0.5472188645 0.8316363925 0.0945115073 0.4998115037 0.7781986724 -0.3802568698 0.0644269276 -0.3623476369 0.9298136163 0.7572563766 -0.0105260518 0.6530329107 0.1054409972 0.2945953078 0.9497872397 -0.1809019233 0.8143274507 -0.5514936964 -0.1033724304 0.6607671644 -0.7434385617 -0.0957103823 0.2005464753 -0.9749977610 -0.2508220274 0.5934678869 0.7647772079 0.4792942049 -0.4879420715 -0.7295132624 0.2611673767 -0.8734864748 0.4108685674 -0.4050260129 0.2950857799 -0.8653775542 -0.5610668810 0.6174398325 -0.5513365653 0.6796844689 -0.6364843040 -0.3645775000 0.1152702580 -0.2602740189 -0.9586293354 0.2785767777 -0.2555815221 -0.9257824067 -0.1151293736 -0.6947393071 0.7099876918 -0.1319867689 -0.1364218075 -0.9818190176 0.1889915226 -0.3259881210 0.9262904239 0.1771371125 -0.3355327173 0.9252244263 -0.3539035617 0.6917230200 -0.6295010187 -0.5815554639 -0.3308917909 0.7431714911 -0.6850129485 -0.6446794118 0.3393312781 -0.3519584761 0.0409992590 -0.9351172610 0.2481265586 0.1400639537 -0.9585485380 0.6234791145 0.3239703661 -0.7115595517 0.9444713617 -0.0566726489 0.3236696738 0.9482903184 0.0855584923 0.3056553884 -0.4734708907 0.6020930320 -0.6428913567 -0.5584126287 0.4656548817 0.6865426915 -0.4312460750 0.6832493235 0.5892344056 0.1343172440 0.8425408260 -0.5216165589 -0.6365651876 -0.7534993047 0.1643884415 0.0926928844 -0.3335346621 0.9381698452 0.0489962091 -0.2190337847 0.9744863122 0.3163074689 0.5396103962 -0.7802372751 0.7737781257 0.4542856035 0.4414657433 0.3336557827 0.5760559655 -0.7462126663 0.2731783789 0.6214748789 -0.7342632690 0.8864808529 0.4479914614 -0.1159971893 -0.3028991862 -0.8435927036 -0.4433998572 -0.2974534945 0.9482576761 0.1110351217 -0.3437134739 0.8246707425 0.4491984131 -0.8803514029 -0.1147569600 -0.4602306460 -0.2751920706 -0.8528874067 -0.4436805109 -0.0722233015 -0.8079356970 -0.5848279270 -0.2014299807 0.9574081849 0.2068708059 -0.5934941887 0.7299767032 0.3389670498 -0.3922052793 -0.5327738517 0.7498846857 0.3396649051 0.5385651459 -0.7710871130 0.3862916637 0.5406382520 -0.7473212368 0.3396501339 0.5385642642 -0.7710942354 0.3396461575 0.5385640267 -0.7710961528 0.1126247857 -0.4601032382 0.8806932882 0.1108318472 -0.4528067742 0.8846933519 -0.0838057391 -0.9413541578 -0.3268469791 0.7067019715 -0.6148220953 -0.3500944368 0.4599557093 -0.3548448436 -0.8139569291 -0.2235075094 0.1352046213 0.9652792879 -0.2231805095 0.1347990683 0.9654116590 -0.2230409663 0.1346264007 0.9654680003 -0.2232275163 0.1348573597 0.9653926499 -0.2225762016 0.1340496989 0.9656554835 -0.2236681997 0.1354039221 0.9652141288 -0.2227692098 0.1342893415 0.9655776778 -0.2224662300 0.1339133412 0.9656997430 -0.1802086145 0.0818527585 0.9802168032 -0.2226747573 0.1341832391 0.9656142143 -0.2226595139 0.1344163895 0.9655853018 -0.2230728165 0.1349957637 0.9654090648 0.1669254402 -0.3145199562 -0.9344587174 -0.2215186986 0.1354755653 0.9656996621 0.2534591748 -0.2169816550 -0.9426968803 0.2505243105 -0.2101603571 -0.9450239120 0.4823441879 -0.3851706681 -0.7867576761 0.7374714754 0.4353329245 0.5163536267 0.4636731162 0.3371315019 -0.8193592568 0.8230587441 -0.5670163113 -0.0326620050 0.2197722722 -0.1326039022 -0.9664969495 0.2253272142 -0.1300545766 -0.9655638009 0.2248739197 -0.1264212660 -0.9661518430 0.2037518850 -0.0979203059 -0.9741133317 0.2245787161 -0.1254486111 -0.9663472700 0.1756577697 -0.7374312194 0.6521806073 0.1958842711 0.1959952857 0.9608408819 -0.0155799240 0.4234319950 -0.9057939123 -0.0707352687 0.3607700563 -0.9299685415 -0.1004562577 0.3256070693 -0.9401534857 -0.0743118326 0.1549468101 -0.9851239707 -0.3376734317 0.8585540751 0.3858258074 0.1560710375 -0.5231893660 0.8378035083 -0.3066349576 -0.9367091457 -0.1689703497 0.9259005789 0.1042728255 -0.3630913050 0.5340544667 0.5979773354 0.5976695851 -0.6750350268 -0.6277334508 -0.3876576162 -0.9195369116 0.3290388897 -0.2149076017 0.0689873889 -0.6885773881 0.7218738953 0.0714524376 -0.6715868538 0.7374724720 0.0633620214 -0.3691995450 0.9271876564 0.4348779145 0.8794781694 -0.1933891130 -0.3197016073 -0.5168034111 -0.7941694508 0.2726892886 0.5234803004 -0.8072229723 -0.0187483490 0.0079271156 0.9997928087 -0.0187582526 0.0079573822 0.9997923825 0.0753918157 -0.0381789087 0.9964228244 0.2195182312 -0.5921845488 -0.7753252262 -0.1204666691 0.3287109870 -0.9367160021 -0.1204798535 0.3287218535 -0.9367104931 0.2194896814 -0.5919965919 -0.7754768306 -0.1204915226 0.3287314707 -0.9367056171 0.1357806064 -0.0261331208 0.9903942078 0.2192793168 -0.5917305030 -0.7757393848 0.2181289863 -0.5917915431 -0.7760170841 -0.3180803323 -0.8153338535 0.4837929407 -0.2059573703 0.1752072174 0.9627481460 -0.8647634857 0.4792087963 -0.1501434091 -0.0545656341 0.3320569128 0.9416797748 -0.6879652436 0.4288414615 -0.5854902428 -0.0387332977 -0.7615574714 -0.6469389070 0.1346916687 -0.2781108048 -0.9510586389 0.6640579577 0.3246307011 -0.6735294624 -0.2386535604 -0.2963233572 0.9247902173 -0.1923026297 -0.3520425230 -0.9160162447 -0.1771636058 -0.3510684152 -0.9194367975 -0.1801672452 -0.3565764310 -0.9167295199 -0.8774162583 0.4309654573 0.2107355789 -0.5001376445 0.4190775363 -0.7577838446 0.5889325184 -0.5446858392 -0.5970559651 0.2174778491 -0.1596839826 -0.9629145397 0.9732607117 0.2296993275 0.0013438848 -0.6193131629 0.5275501114 -0.5814998592 0.9097932280 -0.4077808549 0.0774019169 0.6530842283 0.0527711191 -0.7554443723 0.1091044736 0.9771296833 0.1825206724 -0.6847304960 -0.2364538476 0.6893719793 -0.6894301012 -0.2314236225 0.6863885507 -0.6822143377 -0.2397791797 0.6907166875 -0.6643655993 -0.2351670199 0.7094468431 0.4877488099 -0.4803087836 -0.7289750139 0.7528400383 -0.6492575175 -0.1081506019 0.0332298369 0.4261972524 0.9040197343 -0.6546563611 0.4064255223 0.6373722176 -0.0726666647 -0.4846362349 -0.8716921909 -0.5033505341 -0.6987143817 0.5083664550 0.3390160036 0.2884288759 -0.8954758137 -0.2373872978 0.0128336098 -0.9713303091 -0.2615760466 -0.0587908121 -0.9633906852 0.7522866580 0.2694516755 0.6012159170 0.1439967128 -0.6094747483 0.7796188029 -0.4401250216 0.8365774960 0.3262331353 0.2696940268 0.7976517716 0.5394597141 0.2716261638 0.8386172183 0.4721656366 0.2090911282 0.6355616578 -0.7431973354 -0.3845822472 0.7536673043 -0.5329935174 -0.2919762516 0.6684385336 0.6840612512 -0.2518893573 0.6666777285 0.7014930919 -0.8247831911 0.4462144592 0.3473115951 -0.1772985311 0.9573738056 0.2280364605 0.3002269106 0.5922466490 -0.7477350526 0.2806556239 0.5827389568 -0.7626583305 -0.2984422702 0.4463298648 -0.8436360964 -0.3000442784 0.4872086895 -0.8201226273 -0.1923654827 -0.5414377649 0.8184379438 -0.1957691749 -0.5312656029 0.8242762215 -0.4403269902 0.6284700927 -0.6412000345 0.0843762882 0.9896458926 0.1161105041 -0.6559062053 -0.6631169327 0.3606424592 -0.6477178384 -0.7391520722 -0.1847046723 0.6216479905 -0.6940022700 -0.3632005303 -0.4377077669 0.6553992959 -0.6155190279 -0.1216637030 0.3523872156 -0.9279122769 -0.2329608211 0.2568593547 -0.9379512395 -0.4786225412 0.7628191286 -0.4347728603 -0.1737026000 0.6567031495 0.7338721825 -0.7734245001 -0.6004230683 -0.2032404527 -0.7640777679 -0.6230885091 -0.1671701960 0.2986761407 0.2188552539 -0.9289213857 0.2974134326 0.2166323880 -0.9298471157 -0.2439385874 0.3579336048 -0.9013198656 0.3978150508 0.4542160462 -0.7971392405 0.3423488903 0.4963733687 -0.7977535435 -0.3679618296 0.7958036578 0.4809372414 -0.3649433616 0.8040830344 0.4693259173 -0.8854927784 0.3731738410 0.2768462097 -0.8869884095 0.3678066690 0.2792307571 0.0322038661 0.0956233527 -0.9948965200 0.0299039321 0.0983249598 -0.9947049598 0.0681936777 0.0531639174 -0.9962545961 0.0336705136 0.0939388411 -0.9950084375 0.0706242506 0.0502728160 -0.9962353433 0.0315001319 0.0964961448 -0.9948347781 0.0697326909 0.0513361073 -0.9962439239 -0.9735278555 0.2172835829 0.0709320738 -0.4238732134 -0.7489777858 -0.5092776997 0.4890295224 -0.6031941641 0.6300848567 0.0011451290 0.0684565771 -0.9976534397 0.1759362721 -0.2961185429 -0.9388078806 0.5084309279 -0.3526576904 -0.7855765685 0.1803346349 -0.9835924821 -0.0050247977 0.9711427705 -0.0971723125 -0.2178055578 -0.2651236690 -0.9614108109 0.0734757980 -0.2908630307 -0.5680925107 0.7698503729 0.6003661523 -0.1235716117 -0.7901205857 0.4877575640 0.4212436372 0.7646217083 -0.0680046161 -0.9155796473 -0.3963449025 -0.1219243124 0.3803878079 -0.9167549169 0.3198500473 -0.2090763105 0.9241120298 -0.6040775401 -0.0347594845 -0.7961671331 -0.2391611111 -0.6359412160 0.7337443238 -0.2315503391 -0.6370172022 0.7352506542 0.8045627244 -0.5925190511 0.0399999564 0.5654676943 -0.0073228309 0.8247379358 0.0996597043 0.7560942476 0.6468302962 -0.1534764940 0.6421887223 -0.7510250401 0.7465899331 0.1815148282 -0.6400436227 0.1414886076 -0.5278155451 -0.8374913279 -0.6001549200 -0.5560305512 -0.5750166069 -0.2655283333 0.5367713070 -0.8008565840 -0.8479729734 -0.3158350637 -0.4256642444 -0.7710799336 -0.1248551225 -0.6243772372 0.3590315359 0.2544341959 -0.8979752759 0.3518003741 0.2536807508 -0.9010452672 0.3589464446 0.2544593115 -0.8980021763 0.4646797589 -0.0593408582 0.8834881913 -0.0937016036 -0.1858339681 -0.9781031366 -0.0848817616 -0.1981142440 -0.9764967142 -0.1139173662 -0.6161851107 -0.7793194101 0.0885995321 0.1653780052 0.9822424539 0.7157448728 -0.2994622529 -0.6308974847 0.8781514458 0.0218786496 0.4778821643 0.4081577040 0.9091504362 -0.0827814780 0.9198101817 -0.1472148755 -0.3636990653 0.4277939980 0.5480242783 -0.7187918236 0.4394591284 0.5374390433 -0.7197464479 -0.0485471083 -0.6506535733 0.7578212889 -0.0481453776 -0.6506583154 0.7578428459 -0.0497878874 -0.6508237719 0.7575946041 -0.0495899777 -0.6508272929 0.7576045598 -0.0496821884 -0.6508521809 0.7575771372 0.3639480073 -0.0156268579 -0.9312881666 0.9432772055 0.2503034591 -0.2181199027 -0.4285762431 0.5269028683 0.7339589710 -0.4289672692 0.5264772350 0.7340359684 -0.4345306538 0.5250737629 0.7317654368 -0.7262252927 0.3025845890 0.6172838818 -0.0362792655 0.2405689529 -0.9699538101 0.0041122676 0.2892685357 -0.9572391569 0.0163354666 0.3096376986 -0.9507142831 0.2013696487 0.3973488569 -0.8953011507 0.1078191589 0.8494452009 -0.5165441702 -0.3692996903 -0.1432366795 -0.9182053106 -0.2699978794 0.0784229885 -0.9596619092 -0.3530756751 -0.2886960466 0.8899394139 -0.3215940677 -0.9253118751 -0.2009357844 0.2932615739 -0.5837317748 -0.7571359616 -0.0298843347 -0.6451738730 -0.7634511119 0.2668486452 0.3719976775 -0.8890497896 0.3191478225 0.1144519602 -0.9407685242 -0.3964209303 0.0135368838 -0.9179690620 -0.3971702736 0.0123292108 -0.9176621188 -0.3732138142 0.0502580156 -0.9263830637 -0.3734313235 0.0499666825 -0.9263111665 0.1842431367 -0.3894844636 0.9024169320 -0.2693627818 0.0358337394 -0.9623718797 -0.2119811533 0.0192434368 -0.9770842752 -0.0860969938 -0.1622317713 0.9829893998 0.6306154212 -0.6960703445 -0.3432350011 0.6343453165 -0.6934141395 -0.3417350591 -0.2452333420 0.8945680202 -0.3736424298 -0.4035268622 0.9128076256 0.0628355800 -0.5503002308 -0.7400326413 0.3866799009 0.1735313163 0.3615624802 -0.9160564694 0.1744388870 0.3463886482 -0.9217298840 0.3688355241 -0.7351872498 -0.5687354956 -0.4895685711 -0.5444974023 -0.6810618130 0.0874881111 0.4826746088 0.8714189879 0.0729872646 0.4577584855 0.8860756334 0.2545698245 0.7718884939 -0.5825653246 0.2177877471 0.8018518455 -0.5564190103 -0.1614264281 -0.9838719939 0.0770545775 -0.0928304973 0.9011108124 0.4235348894 -0.4452299797 -0.8639930716 -0.2351302563 0.7007692966 -0.1018089340 0.7060859253 0.7781010743 -0.0149248548 0.6279617559 -0.1273739437 -0.6337192657 0.7630044369 -0.1228614864 -0.6298759408 0.7669167845 -0.1273427144 -0.6337443262 0.7629888349 -0.1228312996 -0.6299753312 0.7668399793 -0.1228883437 -0.6300232533 0.7667914679 -0.0929872732 -0.6040552528 0.7914989694 -0.1219862787 -0.6310559708 0.7660859674 -0.0935294403 -0.6037216831 0.7916895687 -0.0934080329 -0.6036262288 0.7917766827 -0.0310405189 0.6017005425 0.7981183768 0.5127579880 0.8092020942 -0.2868295948 0.9208306283 0.2509963937 0.2984489309 -0.0789397883 0.2649879861 -0.9610150244 -0.0745061306 0.2682518649 -0.9604633119 -0.0701826891 0.2713613137 -0.9599153231 0.3275293027 0.4936514548 -0.8056257177 0.6858874510 0.7189521750 0.1125441008 -0.1523935839 -0.6449724854 0.7488569214 -0.1524417202 -0.6449504627 0.7488660912 -0.1524551830 -0.6449481194 0.7488653687 -0.1524070805 -0.6449536373 0.7488704077 -0.1524377158 -0.6449501310 0.7488671920 -0.1524576855 -0.6449478096 0.7488651261 -0.1524544345 -0.6449481840 0.7488654655 -0.1523879238 -0.6449558432 0.7488724064 -0.1524029558 -0.6449541122 0.7488708381 0.0626360390 0.755246796