<?xml version="1.0"?>
<VTKFile type="UnstructuredGrid" version="0.1" byte_order="LittleEndian">
  <UnstructuredGrid>
    <FieldData>
      <DataArray type="Float32" Name="TIME"  NumberOfTuples="1" format="ascii"> 1.3000000000 </DataArray>
      <DataArray type="Int32"   Name="STEP"  NumberOfTuples="1" format="ascii"> 130000 </DataArray>
    </FieldData>
    <Piece NumberOfPoints="288" NumberOfCells="288">
      <Points>
        <DataArray type="Float32" NumberOfComponents="3" format="ascii">
 0.4249428998 0.2064263927 0.0758530246 0.4852226413 0.1507391375 0.1866299216 0.5301332487 0.1282361179 0.0401962720 0.5050931309 0.1470527197 0.1826746164 0.5395122902 0.3645232880 0.2037811284 0.5527630147 0.3589393954 0.2070296061 0.5677581237 0.4471117015 0.1936336897 0.7522333982 0.1785964857 0.1459563573 0.7585392250 0.1854572621 0.1503709500 0.7655073413 0.1923652138 0.1548543806 0.6780211608 0.4549958105 0.1692553822 0.8496502618 0.2320122984 0.1153026231 0.7816631773 0.3731101309 0.0369715350 0.7953686340 0.3700395199 0.0373565229 0.8168517604 0.3854893670 0.0431691783 0.8175684513 0.3880338876 0.2261758475 0.8969554320 0.3686203016 0.1723906468 0.7850900880 0.3703266734 0.5641995900 0.8974702837 0.6112446821 0.4989615651 0.9466276715 0.4782592137 0.4519904823 0.2428350367 0.7997363874 0.0414333232 0.2551550625 0.8172133263 0.0915053630 0.0747773008 0.9091424398 0.1098761239 0.1543971610 0.7223240038 0.0814393788 0.0390430823 0.8885931470 0.1662856686 0.0556075088 0.8047927005 0.1553130399 0.0623578365 0.7985011982 0.1588461562 0.1717047576 0.7197404040 0.1453073117 0.1847990892 0.8262179423 0.1958667758 0.5693433943 0.7613705192 0.2454656159 0.6513206773 0.7387335426 0.1618688833 0.7063926784 0.8121807524 0.2795622772 0.6569008510 0.7422562202 0.1619260792 0.6554206502 0.7438022229 0.1558568706 0.6051264962 0.8502619377 0.2447883036 0.5203271119 0.7628561517 0.0984279938 0.7327343054 0.8574268954 0.2193645689 0.7274296173 0.8562019890 0.2066820479 0.5584705409 0.8504437230 0.1635476839 0.5586202554 0.8508535910 0.1560553266 0.5647765930 0.8551265119 0.1615050919 0.5655413045 0.8557490425 0.1541253541 0.1726958810 0.4807096471 0.3236096044 0.1673546832 0.4846534073 0.4415383643 0.1367841376 0.6604443713 0.2434552354 0.0839443977 0.6890787865 0.2637282298 0.1605766604 0.6614226085 0.2414368299 0.2573100097 0.4522331055 0.3446820152 0.2904721446 0.4616742476 0.4186025178 0.1232733629 0.7600713340 0.4198443922 0.3082370082 0.4590364122 0.2812087712 0.2708884099 0.7854970519 0.2555683305 0.4237349775 0.5343321215 0.4163764618 0.4304972956 0.5455638119 0.4204307418 0.2455818206 0.8876390632 0.3716470562 0.3946291338 0.8350217766 0.4533248748 0.4436159862 0.9114476508 0.2749633937 0.6604391931 0.0750059996 0.2102474796 0.6489647834 0.1082829221 0.2430428349 0.5365338771 0.0959462757 0.3306124758 0.6513827948 0.9037826014 0.3611669723 0.7353736513 0.9445463530 0.5312890646 0.6986647933 0.9097584823 0.3320395399 0.7118095940 0.2407292056 0.2837056132 0.7705268442 0.3871546559 0.3529293349 0.5689320859 0.3184401153 0.3124282411 0.5454494489 0.2396047184 0.4588603490 0.4818138492 0.2668496858 0.3484201474 0.1210484479 0.2918941687 0.0844539434 0.1783388868 0.3770542975 0.0529356994 0.1494396455 0.4386551347 0.0568603883 0.0951466674 0.4145431275 0.1044414430 0.2079935536 0.4384890563 0.0529327118 0.1966525758 0.4342952860 0.0568659631 0.2720530263 0.5418395727 0.0601513587 0.1117276540 0.4729019241 0.1348014388 0.1124206851 0.4826784124 0.1420283085 0.1048060696 0.4918978034 0.1450135555 0.0995952606 0.5072183512 0.1534024466 0.0950729570 0.5210248613 0.1610219678 0.0880722889 0.5289551867 0.1634199043 0.1197964982 0.6090116834 0.0767992600 0.1244366911 0.6139682697 0.0784910143 0.0730182217 0.6660057511 0.2037703259 0.0764051820 0.6737888897 0.1940461244 0.1368245944 0.3950201609 0.2406384954 0.2423092466 0.3039861230 0.2229918900 0.2367044299 0.2956641488 0.2228586954 0.2488000018 0.3043580758 0.2244297491 0.2294526459 0.2900469334 0.2219742763 0.2434895694 0.2946903232 0.2245602246 0.2198690761 0.2867501170 0.2202269040 0.2549515148 0.3065438726 0.2255395932 0.2369600931 0.2879322965 0.2240087316 0.2497245276 0.2951993318 0.2259199427 0.2287200955 0.2834327227 0.2227411064 0.2610411405 0.3106776347 0.2263651015 0.2178363136 0.2809850339 0.2205695632 0.2673778530 0.3171647659 0.2269249602 0.2743698071 0.3268144542 0.2272137187 0.0603548594 0.3234865257 0.2401117492 0.2819099826 0.3248152818 0.2292128704 0.2661552296 0.3216172110 0.3133358328 0.2732717587 0.3271017957 0.3140153216 0.0744640358 0.2505617225 0.2702019080 0.0581312166 0.1724004197 0.2255202186 0.1132648722 0.0683909373 0.2995267041 0.2509160294 0.1371258255 0.3423076591 0.2667693661 0.1557111800 0.3436878917 0.8431313455 0.1244091192 0.4073249667 0.8242142671 0.1092867540 0.4137974204 0.2165601191 0.3126324185 0.4413436391 0.2878930827 0.2670203974 0.4160893098 0.2913458378 0.2675525618 0.4188611436 0.2993701812 0.2805422249 0.5029346925 0.2541881881 0.3453990131 0.3700722168 0.7274542731 0.7810868651 0.3787139909 0.6011309140 0.5231384145 0.2544131998 0.6019132448 0.5427187328 0.2596311619 0.6196250742 0.5471220031 0.0835864838 0.6258493133 0.5621571616 0.0836579243 0.6394912881 0.5590025386 0.0832493304 0.8181801215 0.4747625156 0.2429131206 0.8260197267 0.4849853586 0.2455353870 0.8337236334 0.4949192437 0.2479591914 0.7584033578 0.7524381087 0.1135946397 0.8021507251 0.7664397268 0.1613812788 0.9212542846 0.5591353629 0.1914678494 0.8976834720 0.6352511054 0.0943256475 0.9119813343 0.7261744334 0.2334364420 0.3657492886 0.5765820079 0.0837625054 0.4794075081 0.7327335195 0.0274380713 0.4519022771 0.6603391224 0.0964474481 0.3839897036 0.1577146030 0.4254516142 0.2257228858 0.1344772751 0.4607450939 0.1714704447 0.1848940039 0.3888942202 0.1397261925 0.0882050724 0.4243439141 0.2543999841 0.1548369243 0.0770537759 0.2906642694 0.1240350804 0.1291843863 0.3213379992 0.0795137612 0.1136568324 0.3597200549 0.1684854917 0.0969964177 0.3627582257 0.1662912976 0.0991795572 0.3619650871 0.1718316338 0.1002903971 0.3652125601 0.1697154273 0.1026550785 0.3293207786 0.2035233270 0.1574208295 0.3372138328 0.2089683751 0.1618172427 0.1857947408 0.1644543920 0.5400874902 0.1505286093 0.2523659868 0.4822928353 0.0411541596 0.9383872565 0.1633198799 0.1582112669 0.9510019848 0.1725519447 0.4614955640 0.4843479816 0.1670439509 0.4569687101 0.4747107972 0.1672177426 0.5225101081 0.3914324962 0.2689129364 0.8804590685 0.5609611620 0.0481850730 0.8722098260 0.5656978614 0.0453264115 0.8786025303 0.5639186133 0.0433929057 0.0745141371 0.9515203206 0.2922347659 0.7712007477 0.0775825368 0.2850847315 0.7246697502 0.0997423459 0.3034831221 0.8354143801 0.1252587786 0.3222641441 0.8419649484 0.1387049705 0.3277390734 0.7704909432 0.1911982080 0.2041606096 0.7745282375 0.1950213922 0.2069764420 0.9066120932 0.4814707553 0.3650098621 0.8999953214 0.4790353741 0.3656416927 0.9027128132 0.3808394995 0.2921918463 0.3432864305 0.9113974311 0.0687231630 0.3483024242 0.9041923431 0.0728832020 0.2974840066 0.8398539578 0.0898012763 0.2989566731 0.8342989027 0.0891113822 0.6834945823 0.6154733120 0.3410185922 0.1576600474 0.8802131321 0.4760427466 0.1572817148 0.8728509896 0.4809713151 0.1178267012 0.9136103717 0.2309746988 0.2540382580 0.3183735286 0.1147747737 0.2558084133 0.3238096693 0.1154131332 0.2609179281 0.3188031094 0.1151328731 0.2623580645 0.3243393478 0.1156923773 0.2675095472 0.3187924014 0.1154497700 0.2633739857 0.3298746165 0.1161692830 0.2687250929 0.3244734208 0.1158665472 0.3468638210 0.2667595633 0.0576420892 0.2800215547 0.4116415525 0.0597947010 0.1973198919 0.4191493556 0.3302549241 0.1387285147 0.2202220212 0.3843351622 0.0862087778 0.2771238154 0.2975795691 0.5506462941 0.0556581456 0.4380752165 0.5454679578 0.0731965805 0.3955077034 0.2055370107 0.9129543458 0.4331670261 0.2010792142 0.9445021638 0.2505294126 0.4837995128 0.2622872110 0.5252940384 0.4401499712 0.1863682518 0.4373978997 0.7885709391 0.0588733383 0.2314034379 0.7457895568 0.0915656039 0.1153124500 0.7478558309 0.0859012818 0.1116789034 0.5433841548 0.9282760567 0.2843547820 0.5801611584 0.9170715411 0.2169950882 0.9366502656 0.1616537953 0.2666749100 0.9290528749 0.4904547414 0.0538538008 0.4215676482 0.9074397534 0.0808000954 0.4207847510 0.9140359193 0.0801856605 0.3612871376 0.9026219411 0.1293215145 0.3545978324 0.9049264912 0.1273212224 0.3594347381 0.9112511321 0.1310373418 0.5753557233 0.7360638742 0.5011474589 0.5334604186 0.8252138127 0.0370961959 0.5430422135 0.8169842953 0.0375515738 0.5642809354 0.8936836921 0.0197769285 0.4767811235 0.8187830588 0.4968776225 0.4129385573 0.8239711622 0.5562206226 0.9749116019 0.8493616444 0.2388237700 0.9380101171 0.8857554171 0.4027977838 0.8705430437 0.0857493842 0.2301008568 0.9062108382 0.1048558866 0.1564123953 0.9073790641 0.0990848355 0.1515146625 0.9029561019 0.0945346231 0.1473842399 0.9033668538 0.0844048064 0.1387171472 0.6524518094 0.8779005999 0.0708700452 0.2215855978 0.0596329904 0.0858050000 0.1186463562 0.8101007813 0.4435106637 0.1115896980 0.8100210398 0.4409024707 0.1161492384 0.8084184200 0.4435290160 0.1134031315 0.8068132369 0.4434031853 0.2957190252 0.8896105207 0.1446991189 0.3668298972 0.8040767037 0.1303044179 0.3963367567 0.9318546314 0.1836645811 0.4111411922 0.9316875912 0.1815103320 0.4012458557 0.9057705676 0.1524530073 0.1593564675 0.1245608872 0.0238723806 0.0943619738 0.1064342215 0.0904345920 0.0880117913 0.1101271905 0.0874345045 0.1063307399 0.2153830861 0.0761583563 0.2007650210 0.1344448809 0.0795042025 0.8180946961 0.8957643984 0.0981112527 0.8122177194 0.8989138701 0.1007051792 0.8160938404 0.9078584562 0.0991578588 0.8006885946 0.9058842369 0.2692693044 0.8210363121 0.8821355972 0.3720543111 0.8982914420 0.3811083989 0.3978114184 0.7025174588 0.0617876527 0.3645390072 0.8655900786 0.1980046013 0.3762714095 0.8655616321 0.0302037160 0.3289475191 0.8368896879 0.0332916989 0.3723058599 0.4242349818 0.3156553175 0.1076691540 0.8857883603 0.8590203582 0.2072800824 0.8887910083 0.8507658594 0.2011368180 0.8231715346 0.8788528738 0.1569988668 0.8193190242 0.8817001272 0.1587411627 0.8213187372 0.8847301498 0.1613422233 0.8174747322 0.8875215659 0.1630305861 0.8193956656 0.8907806794 0.1657934815 0.8136129105 0.8904089936 0.1648084119 0.8153697447 0.8938570643 0.1676643963 0.8111675440 0.8973216559 0.1698321668 0.9095010574 0.1045854756 0.0860823391 0.9073657166 0.1102533656 0.0905355726 0.9068409103 0.1146713543 0.0942353668 0.9097603402 0.1436417868 0.1197675539 0.9077381963 0.1182678421 0.0975077449 0.9072699717 0.1379687587 0.1143856313 0.9073074143 0.1331084923 0.1102061385 0.9101321095 0.1212825125 0.1005778141 0.9095993735 0.1285278362 0.1067131362 0.5438846883 0.0796810971 0.3632563019 0.9412763416 0.2742038978 0.1304178276 0.9270113341 0.2776149572 0.1308053471 0.3673437916 0.4697506973 0.0749879593 0.2030681623 0.6324652231 0.0589841916 0.1974781868 0.6197320958 0.0525315435 0.3275616685 0.6603005993 0.1368016136 0.3708823454 0.5212677277 0.0769551497 0.9708058392 0.3527538391 0.0776392927 0.9715537842 0.3563751840 0.0752927116 0.9699175554 0.3597717235 0.0787543728 0.9322232378 0.4569654688 0.1148032781 0.3962717235 0.7259970699 0.1192625192 0.5180137261 0.4798488057 0.0670611706 0.0892977591 0.3593419629 0.3689579609 0.0794535668 0.3456441228 0.4396209131 0.0946056077 0.3501425911 0.3720644979 0.2882677819 0.8237664070 0.4798045806 0.7024066339 0.0499382576 0.4413815604 0.0712293762 0.4057933799 0.2643996377 0.1025031686 0.4554827109 0.2208511898 0.0960866536 0.4530017063 0.2182641415 0.8377665186 0.8937628482 0.4472192056 0.4812285875 0.9182170353 0.1875719996 0.4754577773 0.9122589329 0.1837746518
        </DataArray>
      </Points>
      <Cells>
        <DataArray type="Int32" Name="connectivity" format="ascii">
 0 1 2 3 4 5 6 7 8 9 10 11 12 13 14 15 16 17 18 19 20 21 22 23 24 25 26 27 28 29 30 31 32 33 34 35 36 37 38 39 40 41 42 43 44 45 46 47 48 49 50 51 52 53 54 55 56 57 58 59 60 61 62 63 64 65 66 67 68 69 70 71 72 73 74 75 76 77 78 79 80 81 82 83 84 85 86 87 88 89 90 91 92 93 94 95 96 97 98 99 100 101 102 103 104 105 106 107 108 109 110 111 112 113 114 115 116 117 118 119 120 121 122 123 124 125 126 127 128 129 130 131 132 133 134 135 136 137 138 139 140 141 142 143 144 145 146 147 148 149 150 151 152 153 154 155 156 157 158 159 160 161 162 163 164 165 166 167 168 169 170 171 172 173 174 175 176 177 178 179 180 181 182 183 184 185 186 187 188 189 190 191 192 193 194 195 196 197 198 199 200 201 202 203 204 205 206 207 208 209 210 211 212 213 214 215 216 217 218 219 220 221 222 223 224 225 226 227 228 229 230 231 232 233 234 235 236 237 238 239 240 241 242 243 244 245 246 247 248 249 250 251 252 253 254 255 256 257 258 259 260 261 262 263 264 265 266 267 268 269 270 271 272 273 274 275 276 277 278 279 280 281 282 283 284 285 286 287
        </DataArray>
        <DataArray type="Int32" Name="offsets" format="ascii">
 1 2 3 4 5 6 7 8 9 10 11 12 13 14 15 16 17 18 19 20 21 22 23 24 25 26 27 28 29 30 31 32 33 34 35 36 37 38 39 40 41 42 43 44 45 46 47 48 49 50 51 52 53 54 55 56 57 58 59 60 61 62 63 64 65 66 67 68 69 70 71 72 73 74 75 76 77 78 79 80 81 82 83 84 85 86 87 88 89 90 91 92 93 94 95 96 97 98 99 100 101 102 103 104 105 106 107 108 109 110 111 112 113 114 115 116 117 118 119 120 121 122 123 124 125 126 127 128 129 130 131 132 133 134 135 136 137 138 139 140 141 142 143 144 145 146 147 148 149 150 151 152 153 154 155 156 157 158 159 160 161 162 163 164 165 166 167 168 169 170 171 172 173 174 175 176 177 178 179 180 181 182 183 184 185 186 187 188 189 190 191 192 193 194 195 196 197 198 199 200 201 202 203 204 205 206 207 208 209 210 211 212 213 214 215 216 217 218 219 220 221 222 223 224 225 226 227 228 229 230 231 232 233 234 235 236 237 238 239 240 241 242 243 244 245 246 247 248 249 250 251 252 253 254 255 256 257 258 259 260 261 262 263 264 265 266 267 268 269 270 271 272 273 274 275 276 277 278 279 280 281 282 283 284 285 286 287 288
        </DataArray>
        <DataArray type="UInt8" Name="types" format="ascii">
 1 1 1 1 1 1 1 1 1 1 1 1 1 1 1 1 1 1 1 1 1 1 1 1 1 1 1 1 1 1 1 1 1 1 1 1 1 1 1 1 1 1 1 1 1 1 1 1 1 1 1 1 1 1 1 1 1 1 1 1 1 1 1 1 1 1 1 1 1 1 1 1 1 1 1 1 1 1 1 1 1 1 1 1 1 1 1 1 1 1 1 1 1 1 1 1 1 1 1 1 1 1 1 1 1 1 1 1 1 1 1 1 1 1 1 1 1 1 1 1 1 1 1 1 1 1 1 1 1 1 1 1 1 1 1 1 1 1 1 1 1 1 1 1 1 1 1 1 1 1 1 1 1 1 1 1 1 1 1 1 1 1 1 1 1 1 1 1 1 1 1 1 1 1 1 1 1 1 1 1 1 1 1 1 1 1 1 1 1 1 1 1 1 1 1 1 1 1 1 1 1 1 1 1 1 1 1 1 1 1 1 1 1 1 1 1 1 1 1 1 1 1 1 1 1 1 1 1 1 1 1 1 1 1 1 1 1 1 1 1 1 1 1 1 1 1 1 1 1 1 1 1 1 1 1 1 1 1 1 1 1 1 1 1 1 1 1 1 1 1 1 1 1 1 1 1 1 1 1 1 1 1 1 1 1 1 1 1
        </DataArray>
      </Cells>
      <PointData Scalars="overlap">
        <DataArray type="Float32" Name="overlap" format="ascii">
 0.0002163422 0.0000144057 0.0000205385 0.0001417203 0.0001143520 0.0000540529 0.0000070306 0.0000729916 0.0002656057 0.0000055831 0.0002514125 0.0000978161 0.0000726049 0.0000786613 0.0004763996 0.0002653699 0.0000284486 0.0000718208 0.0002434045 0.0000356898 0.0000848457 0.0001984645 0.0001499974 0.0000811922 0.0000106951 0.0000196305 0.0000862077 0.0002732212 0.0000235822 0.0001792787 0.0000598765 0.0000926155 0.0001447449 0.0001879225 0.0000302245 0.0001464147 0.0000208693 0.0000395246 0.0000085662 0.0000062514 0.0000401057 0.0001587304 0.0000293415 0.0000700156 0.0001837421 0.0000649998 0.0000273004 0.0000245034 0.0000295515 0.0000825400 0.0002760370 0.0000073573 0.0000592717 0.0000434076 0.0000111281 0.0001170507 0.0003731354 0.0000348703 0.0000743806 0.0001192161 0.0000017423 0.0000054680 0.0000234277 0.0001957362 0.0002541932 0.0001979948 0.0000225645 0.0000750911 0.0000501539 0.0000191123 0.0000292996 0.0000143891 0.0000824763 0.0001177835 0.0000218684 0.0000039012 0.0000029874 0.0000288682 0.0000278682 0.0000013462 0.0000047968 0.0000983735 0.0000756453 0.0000360055 0.0000406507 0.0000656181 0.0000792818 0.0000689033 0.0000919395 0.0000523159 0.0000540090 0.0000388124 0.0000975533 0.0000185478 0.0000141054 0.0000102833 0.0001059839 0.0000204264 0.0001137604 0.0000939770 0.0000646062 0.0000973576 0.0000076877 0.0000133802 0.0000155890 0.0000612317 0.0000221348 0.0000266556 0.0000709597 0.0000345125 0.0000327382 0.0000568825 0.0000667231 0.0000666831 0.0000700884 0.0000448088 0.0000525298 0.0000147374 0.0000109863 0.0001921191 0.0000449717 0.0001118516 0.0000228095 0.0001806140 0.0001470871 0.0002092923 0.0001042133 0.0000135885 0.0002884739 0.0000385643 0.0000366832 0.0000105953 0.0000587347 0.0000792487 0.0000450758 0.0000789922 0.0000625172 0.0000389392 0.0000031081 0.0000330162 0.0000096816 0.0000257862 0.0000186817 0.0000457314 0.0000539360 0.0000232848 0.0000387478 0.0000143452 0.0000119827 0.0000445079 0.0000106370 0.0000348732 0.0000252441 0.0000193698 0.0000460511 0.0000084259 0.0000390984 0.0000094222 0.0000377857 0.0000274009 0.0000973833 0.0002691384 0.0000866207 0.0000883244 0.0000240800 0.0000881462 0.0000178602 0.0000875033 0.0000198599 0.0000524903 0.0000208036 0.0000180976 0.0000271072 0.0000348821 0.0000838070 0.0001257190 0.0003395963 0.0003157112 0.0000111960 0.0000266278 0.0001154484 0.0001437032 0.0000179131 0.0000372294 0.0000059915 0.0000123578 0.0000198749 0.0000385047 0.0000009636 0.0000485032 0.0000053775 0.0000278473 0.0000097414 0.0000048789 0.0000587780 0.0000377167 0.0000159848 0.0000648500 0.0000286033 0.0000659216 0.0002007564 0.0000976685 0.0000654587 0.0000606179 0.0000259009 0.0000438305 0.0000694931 0.0000271893 0.0000660739 0.0000204453 0.0001478039 0.0000209457 0.0000074565 0.0000298798 0.0000123676 0.0000307502 0.0000779164 0.0000203299 0.0000150765 0.0000326353 0.0000075406 0.0000360259 0.0000205253 0.0000256670 0.0000155942 0.0001018324 0.0001240622 0.0000450491 0.0000270117 0.0000364361 0.0000373057 0.0000169365 0.0000282884 0.0001080901 0.0000359732 0.0000768966 0.0001018980 0.0000432562 0.0000261971 0.0000116230 0.0000448254 0.0000092261 0.0000688321 0.0000174441 0.0000667598 0.0000842440 0.0000105672 0.0000056108 0.0000416135 0.0000555200 0.0000207431 0.0000369524 0.0000495121 0.0000449080 0.0000427166 0.0000163848 0.0000080544 0.0000285112 0.0000224543 0.0000001916 0.0000048576 0.0000551464 0.0000424197 0.0000216544 0.0000033165 0.0000074977 0.0000299596 0.0000331308 0.0000018420 0.0000197764 0.0000439222 0.0000200963 0.0000073148 0.0000006408 0.0000035925 0.0000034242 0.0000128197 0.0000511847 0.0000812726 0.0000134274 0.0000576807 0.0000181039 0.0000842868 0.0000275281 0.0000249646 0.0000222839 0.0000425746 0.0001164545
        </DataArray>
        <DataArray type="Float32" Name="contact normal" NumberOfComponents="3" format="ascii">