<?xml version="1.0"?>
<VTKFile type="UnstructuredGrid" version="0.1" byte_order="LittleEndian">
  <UnstructuredGrid>
    <FieldData>
      <DataArray type="Float32" Name="TIME"  NumberOfTuples="1" format="ascii"> 3.9500000000 </DataArray>
      <DataArray type="Int32"   Name="STEP"  NumberOfTuples="1" format="ascii"> 395000 </DataArray>
    </FieldData>
    <Piece NumberOfPoints="399" NumberOfCells="399">
      <Points>
        <DataArray type="Float32" NumberOfComponents="3" format="ascii">
 0.4248653650 0.2068251150 0.0759427305 0.5299832671 0.1286324451 0.0400906498 0.5050733123 0.1472905217 0.1825915379 0.6403307213 0.1082660403 0.1124596419 0.5396124244 0.3646964839 0.2040003405 0.5528625574 0.3591022611 0.2072262207 0.5678908613 0.4472841692 0.1939266252 0.7522014743 0.1787388545 0.1457376773 0.7585132505 0.1855913788 0.1501547235 0.6781370860 0.4551486906 0.1694656837 0.8496088111 0.2321589833 0.1150671302 0.7816291294 0.3733973775 0.0369725724 0.7953317655 0.3703144003 0.0373491091 0.8168259973 0.3857431831 0.0431749239 0.8042875512 0.3963504591 0.2240353015 0.8177013725 0.3880441505 0.2261937959 0.8970056317 0.3686627339 0.1723157659 0.7489576408 0.3245510022 0.6726878231 0.7715936672 0.2992914066 0.6582620796 0.7860263757 0.3638998044 0.5621507034 0.8677399297 0.6052382769 0.5111380848 0.9118153800 0.5556481468 0.5587193627 0.8933346215 0.6065776763 0.4947004465 0.9262234173 0.5446456098 0.5458334277 0.9417328321 0.3093615536 0.5254656785 0.9349241468 0.3343198813 0.5344025487 0.9466584148 0.4740616365 0.4508189770 0.2426832086 0.7997979929 0.0414070900 0.2550042739 0.8173389974 0.0914575088 0.0745409746 0.9091235322 0.1097900429 0.1543236826 0.7223193398 0.0815086133 0.0388482580 0.8885766643 0.1662301571 0.0554832898 0.8047838136 0.1553460168 0.0622454390 0.7985057292 0.1588803076 0.1716657633 0.7198409994 0.1453823289 0.1846703614 0.8263776901 0.1958309506 0.5696626968 0.7614156293 0.2455268820 0.6836957514 0.7584629754 0.2617670109 0.6518271574 0.7389198127 0.1620805680 0.7064498075 0.8129143218 0.2796418743 0.6573953501 0.7424563246 0.1621258401 0.6559151069 0.7439887516 0.1560626662 0.6050542381 0.8504646297 0.2446690645 0.6094911305 0.8548457429 0.2417825449 0.5207961385 0.7623147033 0.0984628054 0.7326504900 0.8581093704 0.2193673624 0.7273894784 0.8568455442 0.2066726497 0.5647761402 0.8549309460 0.1613302174 0.5655438335 0.8555396634 0.1539495464 0.1730880400 0.4807041060 0.3236696812 0.1676982099 0.4846856324 0.4415918787 0.1372092455 0.6603893742 0.2434468635 0.0843620170 0.6890419743 0.2636710194 0.1610016450 0.6613732628 0.2414225346 0.2576849381 0.4522145185 0.3447852910 0.2908211650 0.4616807892 0.4187205566 0.2909889942 0.5655090503 0.4523276807 0.3086335506 0.4589966876 0.2813308073 0.1182089936 0.7733037482 0.4080899361 0.2713210648 0.7854265478 0.2555506650 0.4240762116 0.5343441791 0.4164803235 0.4308569106 0.5455602590 0.4205650421 0.2460009368 0.8876087305 0.3715553722 0.3711238884 0.8402715362 0.4486929650 0.3884546104 0.8571708304 0.4473812668 0.4440475811 0.9114116210 0.2749308933 0.5616934631 0.7792372870 0.4616558306 0.7554629465 0.3393614128 0.5253676489 0.7491421268 0.3251155781 0.5221867164 0.7310396817 0.1923222909 0.5211137495 0.6605269078 0.0750021742 0.2089066563 0.6490922209 0.1078241007 0.2421730417 0.6082326117 0.1071846626 0.3161804421 0.5368083807 0.0942194234 0.3297714490 0.6497664301 0.8867025599 0.4452710336 0.6558275960 0.9007452688 0.3525091457 0.6572070395 0.9097058846 0.3464140337 0.7437352296 0.9446357181 0.5283420945 0.6975285033 0.9102990410 0.3310050622 0.7118968275 0.2412319357 0.2823336906 0.6923339058 0.1618249632 0.4376716680 0.7639625129 0.3793126645 0.3440292130 0.7707360069 0.3872249477 0.3523731988 0.5690855470 0.3189428749 0.3113884783 0.5335513396 0.2357771560 0.4478710976 0.4819228928 0.2672509192 0.3471234305 0.4709347116 0.3273644184 0.5039579756 0.4582436575 0.3355683682 0.5055496137 0.3861279872 0.4139791101 0.4441316891 0.5795574563 0.5972596504 0.5628781789 0.1272841733 0.2954918331 0.0794076155 0.1210213497 0.2920252850 0.0845412314 0.1781405131 0.3772357035 0.0528338966 0.1491840927 0.4388040615 0.0568121616 0.0950511585 0.4146550274 0.1045543871 0.2077571910 0.4386271716 0.0527655027 0.1964211071 0.4344282776 0.0567128874 0.2718645622 0.5419335505 0.0599524535 0.1116351523 0.4730194317 0.1348029838 0.1123439403 0.4827922679 0.1420333277 0.1047363236 0.4920110635 0.1450383770 0.0995441777 0.5073280508 0.1534453217 0.1196636516 0.6091640912 0.0768629855 0.1243076016 0.6141211825 0.0785437254 0.0731065784 0.6660884144 0.2039453543 0.0764847844 0.6738815822 0.1942218251 0.1368992676 0.3952857239 0.2410300733 0.2422132190 0.3041289701 0.2229842590 0.2365965709 0.2958150218 0.2228484716 0.2487068488 0.3044898077 0.2244118197 0.2293355009 0.2902092002 0.2219681001 0.2433831608 0.2948292884 0.2245373068 0.2197444498 0.2869282679 0.2202320640 0.2548632304 0.3066654287 0.2255145680 0.2368433750 0.2880811660 0.2239869994 0.2496213044 0.2953273583 0.2258875782 0.2609599759 0.3107895053 0.2263358752 0.2673066661 0.3172669812 0.2268944693 0.2743126039 0.3269064710 0.2271853584 0.0603280600 0.3238593819 0.2405523569 0.2818532489 0.3248939603 0.2291692845 0.2734195601 0.3270488185 0.3139742618 0.2819439605 0.3344277167 0.3145352914 0.0744060046 0.2508628143 0.2704874433 0.0724363243 0.1488442793 0.2300774115 0.1130161856 0.0685985245 0.2994132566 0.1289103988 0.0610861626 0.3107438316 0.2422531470 0.1318702669 0.3407275955 0.2508576879 0.1370576214 0.3419975094 0.2667435885 0.1556163661 0.3433603944 0.2741727384 0.1652457750 0.3438922578 0.2824438776 0.1696902600 0.3451599201 0.8679181109 0.1866464531 0.4388061805 0.8336810553 0.1057840350 0.4125784271 0.7587842247 0.1533904238 0.5977298201 0.7548296968 0.1422536219 0.5935167527 0.7470150680 0.1331142373 0.5912835925 0.2973178409 0.2801242362 0.5031614529 0.2898202288 0.2700269592 0.4140874085 0.2535000314 0.3450424980 0.3698627788 0.3102813535 0.3803418684 0.4286197331 0.6312899602 0.7388023228 0.5144397588 0.6934326322 0.6467628711 0.3835487607 0.7179976924 0.8411226714 0.5228727573 0.7601123340 0.7119192703 0.4431572130 0.7150671251 0.7763953729 0.3773382523 0.7224910152 0.7765642092 0.3764747139 0.7217480708 0.7830361290 0.3798929665 0.5481879619 0.5178809677 0.2034165156 0.6016769302 0.5231816979 0.2544420137 0.6024648229 0.5427587715 0.2596855473 0.6200434913 0.5473502973 0.0836204003 0.6262677336 0.5623853504 0.0836987624 0.6399066824 0.5592324489 0.0832587700 0.7413565885 0.6640247222 0.2510469835 0.8187174741 0.4748236668 0.2427186602 0.8265616999 0.4850381085 0.2453611732 0.7524092920 0.6663458367 0.2524258699 0.8342693652 0.4949639941 0.2478051138 0.7588454226 0.7526338397 0.1137495727 0.7644305599 0.6690103502 0.2538320147 0.7782258272 0.6723031573 0.2552954558 0.8026215828 0.7665640842 0.1615335912 0.8794309158 0.6238428690 0.0942660528 0.9217430202 0.5592533515 0.1912940867 0.8981102525 0.6354670785 0.0942525171 0.9265940666 0.6781194316 0.2684885966 0.9125150461 0.7262490166 0.2334564467 0.9396905767 0.6711483800 0.2630035579 0.3658526835 0.5765589257 0.0833477987 0.4803347605 0.7324425272 0.0279597247 0.4430329091 0.6659640868 0.0961069177 0.4495916770 0.6639642012 0.0952665077 0.4523357032 0.6598794509 0.0965930255 0.3894144527 0.1711522268 0.4216737738 0.3343294222 0.0835969310 0.4717569355 0.1711623075 0.1840708604 0.3885515848 0.2163976953 0.1306978023 0.4587596639 0.1403160808 0.0872435686 0.4244190537 0.9285705524 0.4500576897 0.5810535831 0.2542665259 0.1549625510 0.0768238207 0.2905352972 0.1241715478 0.1289600362 0.3212516432 0.0796907423 0.1134317829 0.3626135132 0.1664948611 0.0989907913 0.3618115327 0.1720328103 0.1001072298 0.3650572141 0.1699174832 0.1024749884 0.3680818224 0.1736261364 0.1065973746 0.3291197734 0.2036812079 0.1572358428 0.3370097806 0.2091284882 0.1616362680 0.0617465029 0.1503429013 0.5058003510 0.1851543159 0.1663341524 0.5386194116 0.1499010716 0.2658910441 0.5712995635 0.1483448801 0.2522246101 0.4787910605 0.0408593789 0.9382737618 0.1632794707 0.1579120610 0.9508841564 0.1726205056 0.1685811589 0.9468865371 0.1683304085 0.4623075913 0.4848405025 0.1661080964 0.4577480415 0.4752225317 0.1662387610 0.5258208852 0.3954497108 0.2669789448 0.8807304830 0.5610001392 0.0484155947 0.8724847719 0.5657485974 0.0455649521 0.8788721227 0.5639566988 0.0436096208 0.9528857919 0.5564837366 0.0824621157 0.0848612876 0.9509144391 0.2972595393 0.0909305012 0.9527342378 0.2984105516 0.7712012956 0.0774324517 0.2849991516 0.7320444727 0.0975390776 0.3049635037 0.7245535858 0.0995460972 0.3031239587 0.8351612815 0.1252679269 0.3223784268 0.8416794356 0.1387116357 0.3278998126 0.7707173405 0.1908855956 0.2038465735 0.7747345075 0.1947186091 0.2066770740 0.3426266070 0.1902180836 0.5344575830 0.3550218860 0.1906349093 0.5362011447 0.4139994739 0.2829446073 0.5664127393 0.9549005155 0.6061796525 0.3610206607 0.8663823006 0.6117984622 0.4001128369 0.8999168804 0.4790677117 0.3659220709 0.9022699304 0.4738060805 0.3628360961 0.8960222106 0.4718837952 0.3635566951 0.9027216706 0.3807539657 0.2926230172 0.8058058883 0.0773910502 0.5900192940 0.3432509060 0.9113997439 0.0686958845 0.3482562445 0.9041869569 0.0728548760 0.2973774423 0.8399040567 0.0897858027 0.2988438917 0.8343470830 0.0890977213 0.8006524278 0.6605802440 0.3595344286 0.6844024922 0.6155007958 0.3399599238 0.6751675641 0.6201203942 0.3384223412 0.1505750925 0.9040893280 0.4534406426 0.1568604939 0.9069182892 0.4543829302 0.1183439972 0.9135208997 0.2299884991 0.1206152402 0.9131855595 0.2376250928 0.2538577644 0.3186003141 0.1147663915 0.2556205450 0.3240386674 0.1154065941 0.2607365870 0.3190388487 0.1151260056 0.2621692030 0.3245770396 0.1156872689 0.2673287715 0.3190362548 0.1154432367 0.2631781614 0.3301132099 0.1161660788 0.2685367157 0.3247188453 0.1158618183 0.3468125423 0.2670680364 0.0577853308 0.2798049605 0.4118683807 0.0597694661 0.1971451633 0.4195478242 0.3309930890 0.3175369078 0.4047896882
[...]
      <PointData Scalars="overlap">
        <DataArray type="Float32" Name="overlap" format="ascii">
 0.0002254592 0.0000176139 0.0002058823 0.0000272800 0.0000866877 0.0000335014 0.0000068513 0.0000517645 0.0002479735 0.0002509167 0.0001091899 0.0000487932 0.0000730784 0.0004925531 0.0000271806 0.0002313618 0.0000931038 0.0000060107 0.0000061418 0.0001281923 0.0000225699 0.0000492987 0.0000312567 0.0000301733 0.0000237254 0.0000096872 0.0001207509 0.0000834707 0.0001927593 0.0001200324 0.0000300842 0.0000289261 0.0000076698 0.0000869316 0.0002830968 0.0000288492 0.0001999561 0.0000835529 0.0000471410 0.0000982118 0.0001041106 0.0001686043 0.0000241115 0.0000127421 0.0001835552 0.0000525195 0.0000014506 0.0000530540 0.0001662906 0.0000602946 0.0000792043 0.0002215364 0.0000634175 0.0000342563 0.0000158980 0.0000083958 0.0000554330 0.0002891328 0.0001526292 0.0000511402 0.0001173820 0.0000170129 0.0000945961 0.0000953053 0.0000257226 0.0003203163 0.0000195468 0.0000905950 0.0000906251 0.0000191962 0.0000292405 0.0000608591 0.0000072884 0.0000863289 0.0000184073 0.0000016159 0.0000080384 0.0000088337 0.0000385558 0.0001860227 0.0000088273 0.0000308207 0.0002619454 0.0001149227 0.0000372438 0.0001253144 0.0000100069 0.0000137055 0.0000040606 0.0000159544 0.0000165760 0.0000396935 0.0000070673 0.0000394927 0.0000270941 0.0001011649 0.0001229243 0.0000461460 0.0000056586 0.0000081413 0.0000276775 0.0000246637 0.0000822966 0.0000445983 0.0000529076 0.0000486020 0.0000602413 0.0000762372 0.0000621770 0.0000974618 0.0000384509 0.0000569161 0.0000137270 0.0001104063 0.0000157734 0.0000254487 0.0001251709 0.0001384613 0.0001234927 0.0000800500 0.0001384096 0.0000157745 0.0000303396 0.0000371177 0.0000326103 0.0000591670 0.0000283556 0.0000085773 0.0000406235 0.0001086377 0.0000464047 0.0000186778 0.0000024598 0.0000396669 0.0000015745 0.0000123486 0.0000049169 0.0000335687 0.0000389122 0.0000605922 0.0000185387 0.0000168813 0.0000082153 0.0000067079 0.0000121413 0.0000222261 0.0000203487 0.0000126725 0.0000104676 0.0000259624 0.0000088513 0.0001700837 0.0000141663 0.0000455484 0.0000110448 0.0000460416 0.0001709011 0.0000240657 0.0001045530 0.0002023860 0.0000361768 0.0000389294 0.0001534283 0.0000030977 0.0000397089 0.0002878922 0.0000076092 0.0000181320 0.0000144957 0.0000432402 0.0000044060 0.0000131479 0.0000080724 0.0000748508 0.0000376919 0.0000596437 0.0000612507 0.0000358500 0.0000604177 0.0000172050 0.0000351341 0.0000001294 0.0000569974 0.0000125476 0.0000174694 0.0000518208 0.0000190213 0.0000528098 0.0000301442 0.0000300019 0.0000204779 0.0000078749 0.0000285993 0.0000113390 0.0000229099 0.0000146646 0.0000045055 0.0000260308 0.0000156887 0.0000056655 0.0000674894 0.0000368489 0.0000021314 0.0000126927 0.0000078381 0.0000400822 0.0000105702 0.0000492883 0.0000639937 0.0000374447 0.0002482491 0.0000717086 0.0000078615 0.0000103751 0.0000072374 0.0000071559 0.0000117324 0.0000367867 0.0000338975 0.0000538745 0.0000649350 0.0000026659 0.0000081187 0.0000882843 0.0000310396 0.0000607597 0.0000853708 0.0000025841 0.0000075218 0.0000558190 0.0000901236 0.0000004521 0.0000287112 0.0000797613 0.0001170712 0.0003507615 0.0003214981 0.0000396762 0.0000255093 0.0001376313 0.0001623015 0.0000229631 0.0000388551 0.0000070139 0.0000152346 0.0000603676 0.0000177096 0.0000219316 0.0000121599 0.0000311398 0.0000745309 0.0000535153 0.0000058027 0.0000330149 0.0000231383 0.0000208842 0.0000334593 0.0000189508 0.0000233217 0.0000275563 0.0000620092 0.0000031692 0.0000057137 0.0000214541 0.0000013661 0.0000081542 0.0000690375 0.0002011454 0.0001004840 0.0000705645 0.0000617923 0.0000254621 0.0000533433 0.0000846375 0.0000196914 0.0000506917 0.0000229165 0.0001329215 0.0000053577 0.0000218464 0.0000399282 0.0000061633 0.0000000250 0.0000136026 0.0000074573 0.0000122844 0.0000692615 0.0000458194 0.0000086977 0.0000062050 0.0000204158 0.0000509170 0.0000421710 0.0000042969 0.0000223448 0.0000264618 0.0000096682 0.0000019206 0.0000134088 0.0000581626 0.0001163589 0.0000069940 0.0000207770 0.0000301104 0.0000081518 0.0000235111 0.0000218612 0.0000728942 0.0000744456 0.0000795165 0.0000090157 0.0000791522 0.0000033704 0.0000338934 0.0000163591 0.0000037179 0.0000089350 0.0000222404 0.0000323450 0.0000314827 0.0000289780 0.0000209112 0.0000060134 0.0000219104 0.0000137072 0.0000218345 0.0000040797 0.0000588605 0.0000080916 0.0000052098 0.0000113708 0.0000607029 0.0000875985 0.0000141540 0.0000074361 0.0000051255 0.0000503759 0.0000601898 0.0000343581 0.0000376502 0.0000593571 0.0000512583 0.0000147316 0.0000058127 0.0000105213 0.0000043053 0.0000067023 0.0000083949 0.0000098089 0.0000055137 0.0000459203 0.0000166891 0.0000076972 0.0000327274 0.0000234144 0.0000008259 0.0000054626 0.0000595194 0.0000461618 0.0000197028 0.0000226433 0.0000418991 0.0000146914 0.0000080143 0.0000069388 0.0000337551 0.0000269977 0.0000105419 0.0000220992 0.0000404607 0.0000195130 0.0000139239 0.0000139135 0.0000066491 0.0000151927 0.0000080133 0.0000101239 0.0000157706 0.0000149910 0.0000045993 0.0000049849 0.0000516872 0.0000116026 0.0000607459 0.0000296186 0.0000318492 0.0000087672 0.0000188083 0.0000046671 0.0000027861 0.0000038652 0.0000651564 0.0000061689 0.0000313484 0.0000109481 0.0000235698 0.0000130042 0.0000245723 0.0001357895
        </DataArray>
        <DataArray type="Float32" Name="contact normal" NumberOfComponents="3" format="ascii">
 0.9747536283 -0.1893245726 -0.1183704787 0.1555831199 0.9312625377 0.3294601320 -0.0006369147 0.6164484691 -0.7873949957 -0.2103091205 0.7157911513 -0.6658927102 0.1103538007 -0.0480219992 -0.9927315479 0.2338314684 -0.1107048197 -0.9659540813 0.5992119971 -0.7720011048 -0.2120360271 -0.3785366516 0.6351392003 -0.6732816644 -0.3288793287 0.6782702155 -0.6571057007 -0.1641727851 -0.9501187234 -0.2651824052 -0.8558114186 0.4668467407 0.2228024608 -0.1400016813 -0.4491020349 0.8824437044 -0.1479975238 -0.4748770533 0.8675185976 -0.1169565427 -0.3830500059 0.9162935447 -0.0083258067 0.0626875574 -0.9979984725 0.0267997478 -0.0943901872 -0.9951744903 -0.8319786046 -0.0603918161 0.5515110425 -0.4683996319 0.3948353125 -0.7903839958 -0.3784758465 -0.4904481662 -0.7849946687 0.4266932898 -0.1496637726 0.8919268981 0.4063687938 -0.1798408455 0.8958357404 -0.6620630415 -0.1481319306 -0.7346628207 0.5876515536 -0.7239460471 0.3613416284 -0.6340767478 -0.2069742545 -0.7450559280 -0.0676191977 -0.3232625289 -0.9438903440 -0.7624901632 0.1937272305 -0.6173155686 0.3124962313 -0.0294163669 0.9494634183 -0.7342322117 -0.5295632203 0.4248127293 -0.7988474362 -0.6011016324 0.0227947628 -0.0013720541 -0.9554458577 0.2951632267 0.3770197170 0.7929087863 0.4786980150 0.3335793639 -0.6196454809 -0.7104676530 0.7209787066 0.5217143858 -0.4560743406 0.7537167258 0.4852923517 -0.4431731385 0.2852164660 0.6836299360 -0.6717899063 -0.4732855925 -0.4351836549 -0.7659085680 0.2186449854 -0.1884153891 -0.9574413880 -0.6235798071 0.7261399631 -0.2896014125 -0.5201708797 0.6631029021 0.5382534693 -0.1222978414 -0.0632392626 -0.9904766699 -0.3277456518 0.7301530794 0.5995492210 -0.7229381549 0.6861788852 0.0807400866 0.4062226525 -0.7683124814 -0.4946504700 0.4402997653 -0.7260687524 -0.5281669087 0.1714062584 0.2531755585 0.9521145053 -0.4363237199 -0.6609563394 0.6105393754 -0.9456348041 -0.3248598679 -0.0155204235 0.6139364966 -0.7892947466 0.0097867862 0.5989285087 -0.8008023261 0.0005253479 0.5472231564 0.8316350272 0.0944986696 0.4998136960 0.7781913927 -0.3802688860 0.0644267393 -0.3623455167 0.9298144556 0.7572559471 -0.0105212063 0.6530334868 0.1054396735 0.2946117319 0.9497822923 -0.1808948677 0.8143157684 -0.5515132601 -0.1033736578 0.6607675358 -0.7434380609 -0.0956952979 0.2005378550 -0.9750010147 -0.2508191500 0.5934748163 0.7647727744 0.4793136468 -0.4879109488 -0.7295213047 0.2611720519 -0.8734912914 0.4108553554 -0.4050161506 0.2950863641 -0.8653819708 -0.5610573184 0.6174382945 -0.5513480189 0.6796935733 -0.6364723814 -0.3645813409 0.1152634621 -0.2602515316 -0.9586362577 0.2785699311 -0.2555618247 -0.9257899045 -0.1151253149 -0.6947433184 0.7099844247 -0.1319876536 -0.1363992103 -0.9818220382 0.1889875957 -0.3259860258 0.9262919624 0.1771334068 -0.3355304099 0.9252259725 -0.3539224455 0.6917203986 -0.6294932825 -0.5815540126 -0.3308868704 0.7431748175 -0.6850149699 -0.6446736823 0.3393380826 -0.3519559255 0.0410010594 -0.9351181421 0.2481459147 0.1400599486 -0.9585441126 0.6234608581 0.3239941743 -0.7115647079 0.9444690185 -0.0566729215 0.3236764636 0.9482886102 0.0855580797 0.3056608034 -0.4734736440 0.6020788799 -0.6429025826 -0.5584235845 0.4656565660 0.6865326378 -0.4312478931 0.6832495515 0.5892328106 0.1343173552 0.8425370196 -0.5216226784 -0.6365615782 -0.7535037532 0.1643820281 0.0926935480 -0.3335359299 0.9381693289 0.0489937169 -0.2190280914 0.9744877172 0.3163018414 0.5395991486 -0.7802473351 0.7737812683 0.4542847490 0.4414611146 0.3336668634 0.5760539410 -0.7462092745 0.2731890802 0.6214736583 -0.7342603206 0.8864810947 0.4479894498 -0.1160031104 -0.3028462509 -0.8435983908 -0.4434251947 -0.2974542423 0.9482582615 0.1110281188 -0.3437152444 0.8246730336 0.4491928521 -0.8803492125 -0.1147574128 -0.4602347230 -0.2751894143 -0.8528883358 -0.4436803725 -0.0722185974 -0.8079366505 -0.5848271907 -0.2014317997 0.9574070779 0.2068741582 -0.5934968273 0.7299743463 0.3389675056 -0.3922070821 -0.5327756553 0.7498824614 0.3396769328 0.5385622553 -0.7710838336 0.3863033546 0.5406352319 -0.7473173786 0.3396621630 0.5385613737 -0.7710909556 0.3396581876 0.5385611363 -0.7710928725 0.1126287051 -0.4601069996 0.8806908219 0.1108357514 -0.4528105270 0.8846909420 -0.0837996276 -0.9413527377 -0.3268526360 0.7066998901 -0.6148225985 -0.3500977544 0.4599488987 -0.3548466231 -0.8139600019 -0.2235124058 0.1352070986 0.9652778071 -0.2231854073 0.1348015434 0.9654101811 -0.2230458662 0.1346288768 0.9654665230 -0.2232324130 0.1348598340 0.9653911720 -0.2225811037 0.1340521723 0.9656540102 -0.2236730927 0.1354063970 0.9652126477 -0.2227741120 0.1342918173 0.9655762025 -0.2224711320 0.1339158134 0.9656982709 -0.1802137891 0.0818550925 0.9802156569 -0.2226796606 0.1341857153 0.9656127394 -0.2226644151 0.1344188659 0.9655838269 -0.2230777156 0.1349982428 0.9654075861 0.1669297107 -0.3145198800 -0.9344579802 -0.2215235734 0.1354780320 0.9656981978 0.2534591599 -0.2169893455 -0.9426951141 0.2505243413 -0.2101680888 -0.9450221843 0.4823433206 -0.3851736958 -0.7867567255 0.7374705912 0.4353355458 0.5163526795 0.4636627757 0.3371336676 -0.8193642174 0.8230662088 -0.5670055576 -0.0326605832 0.2197700534 -0.1326075399 -0.9664969550 0.2253249612 -0.1300582343 -0.9655638340 0.2248716362 -0.1264248590 -0.9661519044 0.2037497854 -0.0979237193 -0.9741134278 0.2245763971 -0.1254521469 -0.9663473499 0.1756637024 -0.7374340036 0.6521758613 0.1958962152 0.1959947805 0.9608385499 -0.0155865287 0.4234290434 -0.9057951785 -0.0707421879 0.3607671994 -0.9299691235 -0.1004633350 0.3256042638 -0.9401537011 -0.0743290716 0.1549474051 -0.9851225765 -0.3376637723 0.8585550951 0.3858319914 0.1560674822 -0.5231838045 0.8378076436 -0.3066393357 -0.9367080254 -0.1689686152 0.9259317652 0.1042864729 -0.3630078480 0.5340522140 0.5979795129 0.5976694194 -0.6750137521 -0.6277652204 -0.3876432154 -0.9195212187 0.3290595718 -0.2149430776 0.0689816852 -0.6885764420 0.7218753429 0.0714458947 -0.6715849585 0.7374748319 0.0633509669 -0.3691971049 0.9271893834 0.4348680908 0.8794829348 -0.1933895317 -0.3196971815 -0.5168065155 -0.7941692123 0.2726969113 0.5234740463 -0.8072244530 -0.0187431458 0.0079255988 0.9997929182 -0.0187530522 0.0079558670 0.9997924921 0.0753965649 -0.0381813187 0.9964223727 0.2195148785 -0.5921866485 -0.7753245716 -0.1204672137 0.3287121991 -0.9367155067 -0.1204803971 0.3287230647 -0.9367099982 0.2194863283 -0.5919986916 -0.7754761768 -0.1204920653 0.3287326809 -0.9367051226 0.1357567241 -0.0261298346 0.9903975685 0.2192759608 -0.5917326041 -0.7757387307 0.2181256158 -0.5917936515 -0.7760164237 -0.3180990223 -0.8153433848 0.4837645883 -0.2059579394 0.1752042403 0.9627485660 -0.8647660621 0.4792043717 -0.1501426923 -0.0545676775 0.3320544536 0.9416805235 -0.6879601934 0.4288575662 -0.5854843809 -0.0387766345 -0.7615509229 -0.6469440196 0.1346612868 -0.2781282949 -0.9510578265 0.6640592921 0.3246343522 -0.6735263870 -0.2386594372 -0.2963370450 0.9247843147 -0.1922944153 -0.3520462460 -0.9160165383 -0.1771555787 -0.3510721990 -0.9194368994 -0.1801591666 -0.3565801571 -0.9167296582 -0.8774165734 0.4309643837 0.2107364628 -0.5001145239 0.4190683770 -0.7578041689 0.5889318864 -0.5446878800 -0.5970547266 0.2173637541 -0.1597489967 -0.9629295179 0.9732612083 0.2296972728 0.0013354053 -0.6193051057 0.5275666766 -0.5814934117 0.9097902413 -0.4077865310 0.0774071189 0.6530776273 0.0527593036 -0.7554509041 0.1091565842 0.9771467339 0.1823981924 -0.6847329223 -0.2364439060 0.6893729792 -0.6894329402 -0.2314133249 0.6863891710 -0.6822165335 -0.2397694550 0.6907178945 -0.6643682667 -0.2351569556 0.7094476812 0.4877522736 -0.4803135044 -0.7289695859 0.7528406015 -0.6492557055 -0.1081575593 0.0332319813 0.4261987775 0.9040189365 -0.6546977175 0.4062690436 0.6374294965 -0.0725321605 -0.4846469152 -0.8716974551 -0.5033490949 -0.6987168762 0.5083644516 0.3390228844 0.2884367275 -0.8954706796 -0.2373897203 0.0128344448 -0.9713297060 -0.2615772161 -0.0587880546 -0.9633905359 0.7522929918 0.2694463171 0.6012103931 0.1439895393 -0.6094808570 0.7796153523 -0.4401121154 0.8365796995 0.3262448962 0.2696937430 0.7976554770 0.5394543772 0.2716254330 0.8386195534 0.4721619095 0.2090922336 0.6355666624 -0.7431927446 -0.3845888720 0.7536635367 -0.5329940646 -0.2919880723 0.6684322852 0.6840623113 -0.2519023139 0.6666714898 0.7014943684 -0.1773009731 0.9573722401 0.2280411341 0.3002284783 0.5922483117 -0.7477331062 0.2806570398 0.5827405154 -0.7626566184 -0.2984551856 0.4463287474 -0.8436321186 -0.3000570976 0.4872075558 -0.8201186108 -0.1923620604 -0.5414398908 0.8184373417 -0.1957655940 -0.5312680247 0.8242755111 -0.4403044260 0.6284666196 -0.6412189334 0.0843759796 0.9896476083 0.1160961048 -0.6559090292 -0.6631192841 0.3606329996 -0.6477519336 -0.7391281102 -0.1846809929 0.6216209907 -0.6940303221 -0.3631931387 -0.4377293708 0.6553877856 -0.6155159205 -0.1216835514 0.3523807054 -0.9279121466 -0.2329787751 0.2568505688 -0.9379491861 -0.4786295660 0.7628193590 -0.4347647226 -0.1736928122 0.6566971550 0.7338798632 -0.7734311611 -0.6004157242 -0.2032368007 -0.7640846896 -0.6230810120 -0.1671665029 0.2986764434 0.2188547133 -0.9289214157 0.2974137495 0.2166318364 -0.9298471429 -0.2439402621 0.3579203137 -0.9013246904 0.3978223630 0.4542093578 -0.7971394023 0.3423562895 0.4963669268 -0.7977543764 -0.3679629689 0.7958104309 0.4809251622 -0.3649446020 0.8040895839 0.4693137315 -0.8854920277 0.3731741665 0.2768481721 -0.8869875913 0.3678072417 0.2792326017 0.0322099438 0.0956213645 -0.9948965143 0.0299100108 0.0983229899 -0.9947049718 0.0681995285 0.0531618794 -0.9962543043 0.0336765593 0.0939368778 -0.9950084182 0.0706300816 0.0502707795 -0.9962350327 0.0315061781 0.0964941994 -0.9948347753 0.0697385193 0.0513340820 -0.9962436203 -0.9735258681 0.2172926027 0.0709317209 -0.4238647836 -0.7489802660 -0.5092810682 0.4890336402 -0.6031933620 0.6300824285 0.0011453616 0.0684608448 -0.9976531466 0.1759338052 -0.2961208602 -0.9388076120 0.5084278959 -0.3526525660 -0.7855808312 0.1803347757 -0.9835924576 -0.0050245445 0.9711451645 -0.0971709360 -0.2177954975 -0.2651238501 -0.9614093576 0.0734941577 -0.2908694489 -0.5680918634 0.7698484257 0.6003621352 -0.1235820634 -0.7901220034 0.4877589942 0.4212421547 0.7646216127 -0.0679896756 -0.9155821264 -0.3963417387 -0.1218446695 0.3804178926 -0.9167530221 0.3198454139 -0.2090844715 0.9241117871 -0.6040754028 -0.0347694527 -0.7961683195 -0.2391582948 -0.6359420380 0.7337445293 -0.2315476127 -0.6370179995 0.7352508221 0.8045595871 -0.5925236653 0.0399947104 0.5654840137 -0.0073086947 0.8247268719 0.0996567752 0.7561007404 0.6468231578 -0.1534884494 0.6421902085 -0.7510213260 0.7465838536 0.1815153568 -0.6400505642 0.1414899935 -0.5278183466 -0.8374893281 -0.6001503137 -0.5560381743 -0.5750140431 -0.2655342945 0.5367690023 -0.8008561523 -0.8479755015 -0.3158362421 -0.4256583337 -0.7710765100 -0.1248561471 -0.6243812604 0.3590315054 0.2544339836 -0.8979753483 0.3518003837 0.2536805024 -0.9010453333 0.3589464643 0.2544591039 -0.8980022273 0.4646807498 -0.0593524643 0.8834868905 -0.0936947146 -0.1858386408 -0.9781029087 -0.0848748893 -0.1981188798 -0.9764963710 -0.1138987259 -0.6161841826 -0.7793228685 0.0886068812 0.1653518904 0.9822461875 0.7157398161 -0.2994341909 -0.6309165405 0.8781668727 0.0218722821 0.4778541065 0.4081940361 0.9091322416 -0.0828021508 0.9197928519 -0.1472265338 -0.3637381714 0.4277886002 0.5480297370 -0.7187908742 0.4394539356 0.5374446055 -0.7197454651 0.4456001123 0.4935937693 -0.7468639306 -0.0485450050 -0.6506540868 0.7578209827 -0.0481432698 -0.6506588286 0.7578425392 -0.0497857538 -0.6508242864 0.7575943024 -0.0495878337 -0.6508278073 0.7576042581 -0.0496800252 -0.6508526957 0.7575768368 0.3639456345 -0.0156421383 -0.9312888374 0.9432758508 0.2503104482 -0.2181177407 -0.4285958140 0.5268715128 0.7339700520 -0.4289868427 0.5264458703 0.7340470246 -0.4345501590 0.5250424980 0.7317762873 -0.7262351954 0.3025593491 0.6172846031 -0.0362833732 0.2405679794 -0.9699538979 0.0041084068 0.2892678388 -0.9572393841 0.0163313282 0.3096366812 -0.9507146856 0.2013677614 0.3973570213 -0.8952979517 0.1078078585 0.8494487891 -0.5165406279 -0.3693031091 -0.1432353561 -0.9182041420 -0.2700017570 0.0784258023 -0.9596605883 -0.3530754824 -0.2886822672 0.8899439602 -0.3215967570 -0.9253116922 -0.2009323226 0.2932601704 -0.5837377760 -0.7571318784 -0.0298843772 -0.6451790024 -0.7634467754 0.2668519641 0.3719891452 -0.8890523635 0.3191392644 0.1144398420 -0.9407729016 -0.3964446174 0.0135231538 -0.9179590348 -0.3971940325 0.0123153016 -0.9176520222 -0.3732385267 0.0502445429 -0.9263738382 -0.3734560963 0.0499531003 -0.9263019118 0.1842623813 -0.3894727058 0.9024180773 -0.2694011512 0.0358327424 -0.9623611766 -0.2120195918 0.0192415841 -0.9770759715 -0.0860885841 -0.1622202584 0.9829920363 0.6306674871 -0.6959911224 -0.3432999829 0.6343960795 -0.6933354508 -0.3418004783 -0.2452325007 0.8945715014 -0.3736346470 -0.4035432444 0.9128006219 0.0628321141 -0.5502978164 -0.7400354004 0.3866780565 0.1735301898 0.3615618976 -0.9160569128 0.1744377598 0.3463880511 -0.9217303218 0.3688257700 -0.7351868205 -0.5687423761 -0.4895767262 -0.5444943511 -0.6810583901 0.0874890076 0.4826706702 0.8714210794 0.0729881763 0.4577541256 0.8860778107 0.2545646234 0.7718943044 -0.5825598985 0.2177828341 0.8018574075 -0.5564129178 -0.1614374986 -0.9838686452 0.0770741402 -0.0928244583 0.9011128765 0.4235318214 -0.4452207038 -0.8639968524 -0.2351339277 0.7007710893 -0.1018138328 0.7060834397 0.7780977525 -0.0149358296 0.6279656109 -0.1273416329 -0.6337164403 0.7630121767 -0.1228292051 -0.6298730453 0.7669243334 -0.1273103524 -0.6337414597 0.7629966162 -0.1227989664 -0.6299723932 0.7668475714 -0.1228559615 -0.6300202755 0.7667991036 -0.0929548519 -0.6040515824 0.7915055788 -0.1219538074 -0.6310529583 0.7660936188 -0.0934969799 -0.6037179916 0.7916962179 -0.0933755349 -0.6036225030 0.7917833563 -0.0310412169 0.6017018513 0.7981173629 0.5127402165 0.8092150307 -0.2868248671 0.9208305709 0.2509966200 0.2984489178 -0.0789125570 0.2649615812 -0.9610245412 -0.0744788593 0.2682254459 -0.9604728053 -0.0701554006 0.2713348660 -0.9599247941 0.3275110962 0.4936318458 -0.8056451344 0.6858657154 0.7189720953 0.1125493074 -0.1523924981 -0.6449747060 0.7488552298 -0.1524406345 -0.6449526834 0.7488643997 -0.1524540972 -0.6449503400 0.7488636773 -0.1524059950 -0.6449558579 0.7488687162 -0.1524366301 -0.6449523517 0.7488655005 -0.1524565999 -0.6449500302 0.7488634346 -0.1524533489 -0.6449504046 0.7488637740 -0.1523868381 -0.6449580638 0.7488707148 -0.1524018701 -0.6449563328 0.7488691466 0.0626478750 0.755243565