<?xml version="1.0"?>
<VTKFile type="UnstructuredGrid" version="0.1" byte_order="LittleEndian">
  <UnstructuredGrid>
    <FieldData>
      <DataArray type="Float32" Name="TIME"  NumberOfTuples="1" format="ascii"> 3.8000000000 </DataArray>
      <DataArray type="Int32"   Name="STEP"  NumberOfTuples="1" format="ascii"> 380000 </DataArray>
    </FieldData>
    <Piece NumberOfPoints="399" NumberOfCells="399">
      <Points>
        <DataArray type="Float32" NumberOfComponents="3" format="ascii">
 0.4248653492 0.2068250814 0.0759427282 0.5299832570 0.1286324066 0.0400906562 0.5050733049 0.1472905028 0.1825915344 0.6403307109 0.1082660039 0.1124596460 0.5396124258 0.3646964611 0.2040003039 0.5528625610 0.3591022371 0.2072261809 0.5678908654 0.4472841429 0.1939265877 0.7522014630 0.1787388247 0.1457376636 0.7585132400 0.1855913500 0.1501547089 0.6781370879 0.4551486558 0.1694656424 0.8496088009 0.2321589416 0.1150671163 0.7816291253 0.3733973216 0.0369725484 0.7953317617 0.3703143451 0.0373490828 0.8168259938 0.3857431266 0.0431748996 0.8042875527 0.3963504319 0.2240352457 0.8177013745 0.3880441198 0.2261937387 0.8970056290 0.3686626954 0.1723157340 0.7489576283 0.3245509761 0.6726876033 0.7715936532 0.2992913934 0.6582618371 0.7860263592 0.3638998697 0.5621505019 0.8677399181 0.6052383815 0.5111380840 0.9118153631 0.5556482112 0.5587193214 0.8933346050 0.6065778021 0.4947004474 0.9262234259 0.5446456921 0.5458334071 0.9417328213 0.3093616442 0.5254654439 0.9349241410 0.3343199651 0.5344023423 0.9466584017 0.4740617886 0.4508188631 0.2426832157 0.7997979563 0.0414071007 0.2550042789 0.8173389642 0.0914575088 0.0745410109 0.9091235370 0.1097900185 0.1543236867 0.7223193242 0.0815086110 0.0388482912 0.8885766806 0.1662301215 0.0554832961 0.8047838264 0.1553460092 0.0622454442 0.7985057425 0.1588803008 0.1716657649 0.7198409943 0.1453823410 0.1846703733 0.8263776910 0.1958309355 0.5696626553 0.7614155711 0.2455268356 0.6836957051 0.7584629357 0.2617669944 0.6518271214 0.7389198136 0.1620805280 0.7064497497 0.8129142787 0.2796418969 0.6573953096 0.7424563240 0.1621257998 0.6559150724 0.7439887581 0.1560626394 0.6050541672 0.8504645921 0.2446691088 0.6094910607 0.8548457037 0.2417825891 0.5207960890 0.7623147376 0.0984628245 0.7326504141 0.8581093599 0.2193674109 0.7273894026 0.8568455469 0.2066726897 0.5647760698 0.8549309424 0.1613302620 0.5655437664 0.8555396595 0.1539495914 0.1730880348 0.4807041214 0.3236695765 0.1676982300 0.4846856088 0.4415917684 0.1372092097 0.6603893925 0.2434468173 0.0843619839 0.6890419883 0.2636709902 0.1610016085 0.6613732822 0.2414224809 0.2576849276 0.4522144995 0.3447851612 0.2908211724 0.4616807507 0.4187204236 0.2909890117 0.5655090067 0.4523275844 0.3086335215 0.4589966965 0.2813306627 0.1182090006 0.7733037219 0.4080899233 0.2713210368 0.7854265501 0.2555506232 0.4240762037 0.5343441580 0.4164801376 0.4308568960 0.5455602507 0.4205648665 0.2460009372 0.8876087115 0.3715553583 0.3711239068 0.8402714943 0.4486929000 0.3884546275 0.8571707910 0.4473812106 0.4440475539 0.9114116180 0.2749308475 0.5616934815 0.7792372398 0.4616556944 0.7554629202 0.3393613892 0.5253675004 0.7491421123 0.3251155464 0.5221865843 0.7310398400 0.1923222214 0.5211139071 0.6605269720 0.0750022276 0.2089066302 0.6490922410 0.1078241139 0.2421730405 0.6082326194 0.1071846107 0.3161804199 0.5368083911 0.0942193134 0.3297714103 0.6497663433 0.8867026179 0.4452710253 0.6558275010 0.9007453165 0.3525091489 0.6572069494 0.9097059315 0.3464140366 0.7437351746 0.9446357147 0.5283420922 0.6975284098 0.9102990650 0.3310050634 0.7118967663 0.2412318664 0.2823335878 0.6923338426 0.1618249269 0.4376715642 0.7639624645 0.3793125766 0.3440290633 0.7707359721 0.3872248602 0.3523730800 0.5690855049 0.3189428041 0.3113883562 0.5335512771 0.2357771214 0.4478709845 0.4819228539 0.2672508781 0.3471233013 0.4709346584 0.3273644094 0.5039578285 0.4582436061 0.3355683619 0.5055494623 0.3861279449 0.4139790962 0.4441315112 0.5795574253 0.5972596381 0.5628779553 0.1272842033 0.2954917691 0.0794075509 0.1210213728 0.2920252228 0.0845411583 0.1781405782 0.3772356432 0.0528339064 0.1491841585 0.4388039947 0.0568121452 0.0950511670 0.4146549516 0.1045542965 0.2077572306 0.4386271036 0.0527655061 0.1964211495 0.4344281993 0.0567128936 0.2718645869 0.5419334825 0.0599524026 0.1116352055 0.4730193609 0.1348030036 0.1123439903 0.4827921959 0.1420333491 0.1047363738 0.4920109917 0.1450383967 0.0995442254 0.5073279781 0.1534453415 0.1196636712 0.6091640029 0.0768629496 0.1243076211 0.6141210946 0.0785436887 0.0731066197 0.6660883722 0.2039453051 0.0764848189 0.6738815354 0.1942217721 0.1368992469 0.3952857639 0.2410300265 0.2422131578 0.3041289651 0.2229842166 0.2365965074 0.2958150183 0.2228484302 0.2487067873 0.3044898013 0.2244117789 0.2293354361 0.2902091985 0.2219680585 0.2433830967 0.2948292836 0.2245372675 0.2197443846 0.2869282684 0.2202320209 0.2548631693 0.3066654209 0.2255145282 0.2368433091 0.2880811628 0.2239869604 0.2496212400 0.2953273522 0.2258875407 0.2609599156 0.3107894961 0.2263358358 0.2673066075 0.3172669703 0.2268944297 0.2743125480 0.3269064583 0.2271853175 0.0603280137 0.3238594454 0.2405523429 0.2818531918 0.3248939462 0.2291692466 0.2734195357 0.3270488335 0.3139741926 0.2819439386 0.3344277293 0.3145352185 0.0744059105 0.2508629108 0.2704875139 0.0724362189 0.1488443486 0.2300774891 0.1130160579 0.0685985982 0.2994133421 0.1289102770 0.0610862292 0.3107439173 0.2422530539 0.1318703067 0.3407276205 0.2508575969 0.1370576586 0.3419975312 0.2667435042 0.1556163982 0.3433604075 0.2741726574 0.1652458047 0.3438922668 0.2824437985 0.1696902873 0.3451599258 0.8679181956 0.1866464671 0.4388061423 0.8336811580 0.1057840429 0.4125783963 0.7587845042 0.1533902818 0.5977298843 0.7548299775 0.1422534790 0.5935168171 0.7470153511 0.1331140917 0.5912836599 0.2973176949 0.2801242842 0.5031614193 0.2898201714 0.2700269550 0.4140873697 0.2535000240 0.3450424672 0.3698626697 0.3102812871 0.3803418692 0.4286196511 0.6312900538 0.7388022899 0.5144399277 0.6934323774 0.6467628844 0.3835487155 0.7179978755 0.8411225555 0.5228728716 0.7601122685 0.7119191897 0.4431571314 0.7150669893 0.7763953955 0.3773383101 0.7224908785 0.7765642214 0.3764747638 0.7217479455 0.7830361422 0.3798930209 0.5481879486 0.5178809274 0.2034164757 0.6016769110 0.5231816373 0.2544419378 0.6024648073 0.5427587156 0.2596855233 0.6200434569 0.5473502681 0.0836203711 0.6262676981 0.5623853217 0.0836987320 0.6399066484 0.5592324206 0.0832587331 0.7413565679 0.6640246956 0.2510469308 0.8187174708 0.4748236372 0.2427185957 0.8265616963 0.4850380788 0.2453611098 0.7524092723 0.6663458086 0.2524258126 0.8342693615 0.4949639643 0.2478050516 0.7588453767 0.7526338193 0.1137495199 0.7644305411 0.6690103204 0.2538319526 0.7782258094 0.6723031255 0.2552953879 0.8026215420 0.7665640628 0.1615335317 0.8794308728 0.6238428631 0.0942659933 0.9217430013 0.5592533387 0.1912939963 0.8981102119 0.6354670770 0.0942524540 0.9265940407 0.6781194197 0.2684885061 0.9125150186 0.7262489830 0.2334563531 0.9396905599 0.6711483619 0.2630034631 0.3658527002 0.5765589510 0.0833478239 0.4803347222 0.7324425655 0.0279596765 0.4430329053 0.6659641241 0.0961068901 0.4495916744 0.6639642415 0.0952664826 0.4523357023 0.6598794929 0.0965930026 0.3894143903 0.1711521376 0.4216737739 0.3343292738 0.0835969008 0.4717569384 0.1711622502 0.1840709763 0.3885516066 0.2163975931 0.1306978792 0.4587596865 0.1403159590 0.0872437211 0.4244190826 0.9285705721 0.4500576912 0.5810535162 0.2542665680 0.1549624672 0.0768239115 0.2905354049 0.1241714325 0.1289600742 0.3212518061 0.0796906809 0.1134317513 0.3626135510 0.1664948872 0.0989908865 0.3618115697 0.1720328359 0.1001073266 0.3650572529 0.1699175094 0.1024750831 0.3680818630 0.1736261629 0.1065974675 0.3291197780 0.2036811002 0.1572359875 0.3370097625 0.2091283993 0.1616364271 0.0617464377 0.1503430686 0.5058004041 0.1851542637 0.1663342700 0.5386194408 0.1499010701 0.2658911805 0.5712995612 0.1483448505 0.2522247191 0.4787910817 0.0408593786 0.9382737825 0.1632794249 0.1579120570 0.9508841695 0.1726205286 0.1685811558 0.9468865468 0.1683304346 0.4623076049 0.4848404628 0.1661081073 0.4577480493 0.4752224867 0.1662387664 0.5258209031 0.3954496669 0.2669789370 0.8807304975 0.5610001029 0.0484155631 0.8724847835 0.5657485620 0.0455649269 0.8788721314 0.5639566576 0.0436095660 0.9528858162 0.5564837333 0.0824620456 0.0848612043 0.9509143782 0.2972595395 0.0909304161 0.9527341763 0.2984105619 0.7712012899 0.0774324569 0.2849991667 0.7320444593 0.0975390954 0.3049634993 0.7245535725 0.0995461129 0.3031239526 0.8351612670 0.1252679533 0.3223784355 0.8416794208 0.1387116638 0.3278998170 0.7707173629 0.1908855466 0.2038465249 0.7747345289 0.1947185614 0.2066770250 0.3426263708 0.1902181211 0.5344574610 0.3550216541 0.1906349356 0.5362010052 0.4139993712 0.2829445700 0.5664125378 0.9549003827 0.6061796286 0.3610206840 0.8663821503 0.6117983854 0.4001128546 0.8999167779 0.4790676948 0.3659220029 0.9022698506 0.4738060449 0.3628360159 0.8960221272 0.4718837501 0.3635566181 0.9027216406 0.3807539526 0.2926229416 0.8058061146 0.0773908317 0.5900193295 0.3432508186 0.9113997527 0.0686958747 0.3482561569 0.9041869650 0.0728548647 0.2973774101 0.8399040284 0.0897857930 0.2988438635 0.8343470556 0.0890977127 0.8006524198 0.6605802209 0.3595343700 0.6844024478 0.6155007924 0.3399599759 0.6751675205 0.6201203904 0.3384223986 0.1505750277 0.9040892636 0.4534406456 0.1568604320 0.9069182228 0.4543829239 0.1183439636 0.9135208927 0.2299885002 0.1206152037 0.9131855472 0.2376250946 0.2538578455 0.3186002813 0.1147663660 0.2556206257 0.3240386347 0.1154065690 0.2607366685 0.3190388155 0.1151259838 0.2621692838 0.3245770069 0.1156872467 0.2673288525 0.3190362219 0.1154432182 0.2631782417 0.3301131773 0.1161660565 0.2685367964 0.3247188125 0.1158617995 0.3468125917 0.2670680092 0.0577853147 0.2798050270 0.4118683428 0.0597694414 0.1971451723 0.4195477764 0.3309929171 0.3175368744 0.4047896508
[...]
      <PointData Scalars="overlap">
        <DataArray type="Float32" Name="overlap" format="ascii">
 0.0002254426 0.0000176238 0.0002058984 0.0000272830 0.0000867093 0.0000335311 0.0000068557 0.0000517868 0.0002479961 0.0002509238 0.0001091997 0.0000488110 0.0000730910 0.0004925747 0.0000272219 0.0002314077 0.0000931096 0.0000060028 0.0000061420 0.0001281679 0.0000225601 0.0000493168 0.0000312318 0.0000301129 0.0000237353 0.0000096745 0.0001207191 0.0000835179 0.0001928052 0.0001200461 0.0000300571 0.0000289521 0.0000076412 0.0000869050 0.0002830791 0.0000288699 0.0002000284 0.0000835471 0.0000470965 0.0000981954 0.0001040633 0.0001685649 0.0000240961 0.0000127374 0.0001836153 0.0000525453 0.0000014621 0.0000530579 0.0001663068 0.0000603399 0.0000792359 0.0002215407 0.0000634108 0.0000342569 0.0000158760 0.0000083724 0.0000553984 0.0002891391 0.0001526305 0.0000511680 0.0001174529 0.0000170919 0.0000946012 0.0000953208 0.0000257203 0.0003203458 0.0000195749 0.0000905981 0.0000905929 0.0000191737 0.0000292358 0.0000608905 0.0000072942 0.0000863058 0.0000184403 0.0000016181 0.0000080406 0.0000088265 0.0000385608 0.0001860756 0.0000088475 0.0000308510 0.0002620204 0.0001149700 0.0000372133 0.0001253431 0.0000099946 0.0000136974 0.0000040548 0.0000159818 0.0000165680 0.0000396895 0.0000070735 0.0000395132 0.0000271284 0.0001011891 0.0001229291 0.0000461536 0.0000056382 0.0000081061 0.0000276434 0.0000246181 0.0000823081 0.0000446148 0.0000528993 0.0000485944 0.0000602517 0.0000762272 0.0000621593 0.0000974591 0.0000384241 0.0000569059 0.0000136892 0.0001104110 0.0000157547 0.0000254461 0.0001251831 0.0001384817 0.0001235224 0.0000800928 0.0001384481 0.0000158049 0.0000303667 0.0000370132 0.0000326451 0.0000591719 0.0000283717 0.0000085823 0.0000406263 0.0001086347 0.0000463984 0.0000186700 0.0000024441 0.0000396922 0.0000015827 0.0000123514 0.0000049203 0.0000335630 0.0000389083 0.0000606123 0.0000185465 0.0000169119 0.0000081437 0.0000067054 0.0000121266 0.0000222242 0.0000203615 0.0000126763 0.0000104731 0.0000260359 0.0000087979 0.0001701209 0.0000142012 0.0000455746 0.0000110316 0.0000460064 0.0001708626 0.0000240604 0.0001045111 0.0002023899 0.0000361802 0.0000389430 0.0001534317 0.0000031410 0.0000397075 0.0002879326 0.0000076328 0.0000181786 0.0000145144 0.0000432526 0.0000043929 0.0000131735 0.0000080882 0.0000748614 0.0000376808 0.0000596604 0.0000612549 0.0000358442 0.0000604667 0.0000171831 0.0000351071 0.0000001367 0.0000569750 0.0000125605 0.0000174628 0.0000518186 0.0000190003 0.0000528264 0.0000301125 0.0000300014 0.0000204769 0.0000079019 0.0000286305 0.0000113262 0.0000229157 0.0000146823 0.0000045261 0.0000260366 0.0000156992 0.0000057067 0.0000675449 0.0000368855 0.0000021333 0.0000127007 0.0000078399 0.0000400776 0.0000105570 0.0000492705 0.0000639857 0.0000374310 0.0002482680 0.0000717291 0.0000078661 0.0000103789 0.0000072362 0.0000071452 0.0000117107 0.0000369055 0.0000339991 0.0000539650 0.0000649722 0.0000026596 0.0000081090 0.0000882905 0.0000310493 0.0000607672 0.0000853699 0.0000025388 0.0000074687 0.0000557854 0.0000901116 0.0000004581 0.0000287126 0.0000797896 0.0001170973 0.0003507804 0.0003215165 0.0000396871 0.0000255265 0.0001376411 0.0001623580 0.0000229622 0.0000388876 0.0000070100 0.0000153257 0.0000604088 0.0000176671 0.0000218788 0.0000121206 0.0000311319 0.0000745237 0.0000535026 0.0000057977 0.0000329730 0.0000231388 0.0000208923 0.0000334720 0.0000189596 0.0000233277 0.0000275340 0.0000620059 0.0000031676 0.0000057129 0.0000214425 0.0000013750 0.0000081659 0.0000690391 0.0002011586 0.0001005091 0.0000705835 0.0000617897 0.0000254602 0.0000533610 0.0000846533 0.0000196687 0.0000506733 0.0000229475 0.0001329206 0.0000053618 0.0000218451 0.0000399331 0.0000061755 0.0000000371 0.0000136294 0.0000074713 0.0000122941 0.0000692530 0.0000457850 0.0000087231 0.0000061956 0.0000204246 0.0000509116 0.0000421530 0.0000042610 0.0000223475 0.0000264663 0.0000096734 0.0000019265 0.0000134121 0.0000581638 0.0001163697 0.0000069854 0.0000207741 0.0000301101 0.0000081418 0.0000235284 0.0000218648 0.0000728974 0.0000744269 0.0000795202 0.0000089994 0.0000791365 0.0000033679 0.0000338784 0.0000163552 0.0000037453 0.0000089021 0.0000222314 0.0000323299 0.0000315146 0.0000289722 0.0000208994 0.0000060098 0.0000219088 0.0000137002 0.0000218258 0.0000040874 0.0000588506 0.0000080919 0.0000051717 0.0000113551 0.0000607040 0.0000876134 0.0000141515 0.0000074230 0.0000051291 0.0000503691 0.0000601893 0.0000343475 0.0000376559 0.0000593525 0.0000512595 0.0000147347 0.0000057988 0.0000105519 0.0000042828 0.0000067323 0.0000083669 0.0000098036 0.0000055220 0.0000459220 0.0000166922 0.0000077010 0.0000327340 0.0000234184 0.0000008324 0.0000054685 0.0000595230 0.0000461665 0.0000196860 0.0000226399 0.0000418969 0.0000146855 0.0000080103 0.0000069315 0.0000337598 0.0000269972 0.0000105328 0.0000220915 0.0000404648 0.0000195143 0.0000139371 0.0000139079 0.0000066555 0.0000151876 0.0000080072 0.0000101352 0.0000157915 0.0000149897 0.0000045956 0.0000049949 0.0000516710 0.0000116030 0.0000607585 0.0000296218 0.0000318901 0.0000087063 0.0000188274 0.0000046818 0.0000027923 0.0000038421 0.0000651854 0.0000062320 0.0000314005 0.0000109072 0.0000235423 0.0000129994 0.0000245575 0.0001357880
        </DataArray>
        <DataArray type="Float32" Name="contact normal" NumberOfComponents="3" format="ascii">
 0.9747533623 -0.1893258783 -0.1183705810 0.1555832944 0.9312622955 0.3294607344 -0.0006370837 0.6164490010 -0.7873945792 -0.2103096966 0.7157908032 -0.6658929024 0.1103534618 -0.0480215381 -0.9927316079 0.2338310748 -0.1107043610 -0.9659542292 0.5992119999 -0.7720010483 -0.2120362247 -0.3785365850 0.6351393429 -0.6732815674 -0.3288792446 0.6782703569 -0.6571055969 -0.1641728004 -0.9501186885 -0.2651825209 -0.8558114799 0.4668465544 0.2228026157 -0.1400014391 -0.4491023686 0.8824435730 -0.1479973062 -0.4748774359 0.8675184253 -0.1169562531 -0.3830502583 0.9162934762 -0.0083261166 0.0626887332 -0.9979983960 0.0267995066 -0.0943888241 -0.9951746261 -0.8319792128 -0.0603913907 0.5515101716 -0.4683991951 0.3948363918 -0.7903837156 -0.3784763430 -0.4904465658 -0.7849954292 0.4266942807 -0.1496615700 0.8919267937 0.4063675597 -0.1798395759 0.8958365551 -0.6620620743 -0.1481318022 -0.7346637183 0.5876513138 -0.7239465105 0.3613410900 -0.6340757240 -0.2069740488 -0.7450568564 -0.0676203809 -0.3232607983 -0.9438908519 -0.7624901271 0.1937281905 -0.6173153119 0.3124968327 -0.0294153217 0.9494632528 -0.7342315565 -0.5295636301 0.4248133508 -0.7988468457 -0.6011023323 0.0227970005 -0.0013723663 -0.9554457482 0.2951635797 0.3770195859 0.7929093405 0.4786972004 0.3335800834 -0.6196450138 -0.7104677226 0.7209787789 0.5217152597 -0.4560732268 0.7537168510 0.4852932084 -0.4431719874 0.2852179758 0.6836310366 -0.6717881452 -0.4732857045 -0.4351834865 -0.7659085944 0.2186443676 -0.1884146086 -0.9574416827 -0.6235796788 0.7261400083 -0.2896015755 -0.5201711497 0.6631027280 0.5382534229 -0.1222965389 -0.0632397193 -0.9904768016 -0.3277457836 0.7301530426 0.5995491937 -0.7229381728 0.6861788857 0.0807399221 0.4062224103 -0.7683130254 -0.4946498240 0.4402996979 -0.7260692903 -0.5281662255 0.1714053667 0.2531760474 0.9521145358 -0.4363237739 -0.6609566027 0.6105390518 -0.9456348190 -0.3248598174 -0.0155205718 0.6139363547 -0.7892948436 0.0097878664 0.5989284512 -0.8008023683 0.0005265024 0.5472234269 0.8316350132 0.0944972263 0.4998137121 0.7781909423 -0.3802697865 0.0644271922 -0.3623452007 0.9298145473 0.7572552308 -0.0105205899 0.6530343273 0.1054394850 0.2946131624 0.9497818695 -0.1808942798 0.8143162634 -0.5515127221 -0.1033738280 0.6607677801 -0.7434378202 -0.0956940453 0.2005370952 -0.9750012939 -0.2508187830 0.5934753088 0.7647725126 0.4793136209 -0.4879087004 -0.7295228255 0.2611726152 -0.8734908603 0.4108559139 -0.4050157696 0.2950861763 -0.8653822132 -0.5610570690 0.6174382460 -0.5513483270 0.6796943605 -0.6364713816 -0.3645816189 0.1152626510 -0.2602503581 -0.9586366738 0.2785690745 -0.2555608414 -0.9257904337 -0.1151248575 -0.6947437806 0.7099840467 -0.1319880581 -0.1363974878 -0.9818222231 0.1889875400 -0.3259857873 0.9262920577 0.1771333611 -0.3355301619 0.9252260712 -0.3539235144 0.6917205954 -0.6294924653 -0.5815538149 -0.3308861676 0.7431752851 -0.6850151391 -0.6446731439 0.3393387639 -0.3519556159 0.0410011539 -0.9351182545 0.2481480490 0.1400594224 -0.9585436370 0.6234591704 0.3239956329 -0.7115655224 0.9444688825 -0.0566728335 0.3236768758 0.9482884999 0.0855581548 0.3056611247 -0.4734745914 0.6020769712 -0.6429036724 -0.5584245976 0.4656565845 0.6865318012 -0.4312481509 0.6832496311 0.5892325296 0.1343173200 0.8425362780 -0.5216238853 -0.6365611576 -0.7535041361 0.1643819014 0.0926935960 -0.3335362384 0.9381692145 0.0489933967 -0.2190279722 0.9744877601 0.3163010143 0.5395979459 -0.7802485021 0.7737814392 0.4542846212 0.4414609464 0.3336675470 0.5760537569 -0.7462091109 0.2731897251 0.6214735558 -0.7342601675 0.8864810654 0.4479894369 -0.1160033836 -0.3028425285 -0.8435986069 -0.4434273258 -0.2974543978 0.9482582742 0.1110275940 -0.3437154677 0.8246732936 0.4491922040 -0.8803492847 -0.1147575806 -0.4602345430 -0.2751892806 -0.8528885755 -0.4436799946 -0.0722185438 -0.8079363102 -0.5848276674 -0.2014317301 0.9574070741 0.2068742434 -0.5934967949 0.7299742098 0.3389678561 -0.3922070203 -0.5327759891 0.7498822565 0.3396772620 0.5385626412 -0.7710834191 0.3863036803 0.5406356173 -0.7473169313 0.3396624923 0.5385617596 -0.7710905410 0.3396585170 0.5385615222 -0.7710924579 0.1126288865 -0.4601072370 0.8806906746 0.1108359310 -0.4528107601 0.8846908002 -0.0837985280 -0.9413526184 -0.3268532614 0.7067004732 -0.6148221931 -0.3500972893 0.4599483221 -0.3548466855 -0.8139603005 -0.2235132605 0.1352073597 0.9652775726 -0.2231862621 0.1348018040 0.9654099471 -0.2230467215 0.1346291379 0.9654662890 -0.2232332675 0.1348600943 0.9653909380 -0.2225819592 0.1340524328 0.9656537768 -0.2236739464 0.1354066572 0.9652124133 -0.2227749678 0.1342920784 0.9655759687 -0.2224719873 0.1339160734 0.9656980378 -0.1802146848 0.0818553326 0.9802154722 -0.2226805166 0.1341859766 0.9656125057 -0.2226652711 0.1344191275 0.9655835931 -0.2230785714 0.1349985051 0.9654073516 0.1669312330 -0.3145195381 -0.9344578233 -0.2215244261 0.1354782948 0.9656979654 0.2534593722 -0.2169900564 -0.9426948934 0.2505245578 -0.2101688052 -0.9450219676 0.4823415230 -0.3851749053 -0.7867572355 0.7374704105 0.4353358633 0.5163526700 0.4636618557 0.3371339192 -0.8193646344 0.8230669583 -0.5670044834 -0.0326603408 0.2197698434 -0.1326077855 -0.9664969690 0.2253247480 -0.1300584808 -0.9655638505 0.2248714184 -0.1264250953 -0.9661519241 0.2037495899 -0.0979239312 -0.9741134474 0.2245761738 -0.1254523743 -0.9663473723 0.1756641474 -0.7374340441 0.6521756956 0.1958968491 0.1959946842 0.9608384403 -0.0155867182 0.4234287993 -0.9057952893 -0.0707424558 0.3607670069 -0.9299691778 -0.1004636454 0.3256040991 -0.9401537250 -0.0743304729 0.1549477519 -0.9851224162 -0.3376626022 0.8585553916 0.3858323556 0.1560668689 -0.5231831232 0.8378081833 -0.3066394632 -0.9367079410 -0.1689688519 0.9259340124 0.1042877784 -0.3630017409 0.5340514173 0.5979798730 0.5976697711 -0.6750121172 -0.6277665292 -0.3876439429 -0.9195207917 0.3290595781 -0.2149448947 0.0689810670 -0.6885759833 0.7218758395 0.0714452314 -0.6715845642 0.7374752552 0.0633497753 -0.3691968031 0.9271895850 0.4348681926 0.8794827497 -0.1933901449 -0.3196932493 -0.5168015325 -0.7941740378 0.2726967279 0.5234744792 -0.8072242342 -0.0187425251 0.0079254884 0.9997929308 -0.0187524318 0.0079557568 0.9997925046 0.0753971405 -0.0381815222 0.9964223214 0.2195142304 -0.5921871804 -0.7753243490 -0.1204672557 0.3287124887 -0.9367153997 -0.1204804391 0.3287233541 -0.9367098912 0.2194856800 -0.5919992223 -0.7754759552 -0.1204921072 0.3287329703 -0.9367050157 0.1357549632 -0.0261296228 0.9903978154 0.2192753114 -0.5917331340 -0.7757385100 0.2181249608 -0.5917941826 -0.7760162027 -0.3181007919 -0.8153438685 0.4837626094 -0.2059576708 0.1752039497 0.9627486764 -0.8647662942 0.4792038706 -0.1501429545 -0.0545675729 0.3320542064 0.9416806168 -0.6879598969 0.4288587923 -0.5854838312 -0.0387816905 -0.7615497812 -0.6469450604 0.1346590279 -0.2781296736 -0.9510577432 0.6640591838 0.3246348948 -0.6735262322 -0.2386604121 -0.2963376762 0.9247838609 -0.1922934158 -0.3520466405 -0.9160165966 -0.1771546039 -0.3510725992 -0.9194369345 -0.1801581847 -0.3565805484 -0.9167296990 -0.8774166365 0.4309640810 0.2107368188 -0.5001122769 0.4190675877 -0.7578060883 0.5889302370 -0.5446892125 -0.5970551379 0.2173549567 -0.1597543011 -0.9629306237 0.9732614359 0.2296963130 0.0013346200 -0.6193041788 0.5275684732 -0.5814927688 0.9097901414 -0.4077866817 0.0774074980 0.6530775337 0.0527562262 -0.7554512000 0.1091598158 0.9771480495 0.1823892099 -0.6847326499 -0.2364425398 0.6893737183 -0.6894327104 -0.2314119268 0.6863898732 -0.6822163193 -0.2397680535 0.6907185926 -0.6643680528 -0.2351554637 0.7094483761 0.4877529884 -0.4803142358 -0.7289686257 0.7528410726 -0.6492555065 -0.1081554749 0.0332314360 0.4261984039 0.9040191326 -0.6547010042 0.4062570432 0.6374337691 -0.0725226588 -0.4846464457 -0.8716985067 -0.5033489471 -0.6987172426 0.5083640943 0.3390233217 0.2884373712 -0.8954703067 -0.2373898680 0.0128346080 -0.9713296677 -0.2615773037 -0.0587878160 -0.9633905267 0.7522933348 0.2694466126 0.6012098315 0.1439886010 -0.6094813089 0.7796151723 -0.4401114712 0.8365796340 0.3262459330 0.2696937443 0.7976544687 0.5394558674 0.2716253724 0.8386184356 0.4721639298 0.2090912980 0.6355646954 -0.7431946899 -0.3845893757 0.7536630162 -0.5329944372 -0.2919886415 0.6684318013 0.6840625412 -0.2519028747 0.6666709947 0.7014946376 -0.1773009369 0.9573721708 0.2280414530 0.3002282961 0.5922484901 -0.7477330380 0.2806568649 0.5827406841 -0.7626565539 -0.2984559373 0.4463287940 -0.8436318280 -0.3000578445 0.4872076012 -0.8201183105 -0.1923621168 -0.5414401006 0.8184371897 -0.1957656439 -0.5312682496 0.8242753542 -0.4403022006 0.6284662101 -0.6412208628 0.0843761817 0.9896478243 0.1160941167 -0.6559089391 -0.6631198348 0.3606321509 -0.6477544677 -0.7391263284 -0.1846792363 0.6216194222 -0.6940321479 -0.3631923342 -0.4377304196 0.6553868618 -0.6155161583 -0.1216844328 0.3523798670 -0.9279123494 -0.2329795722 0.2568496245 -0.9379492467 -0.4786305713 0.7628190668 -0.4347641286 -0.1736936153 0.6566965219 0.7338802396 -0.7734319503 -0.6004148816 -0.2032362865 -0.7640855039 -0.6230801521 -0.1671659856 0.2986764746 0.2188547719 -0.9289213919 0.2974137836 0.2166318955 -0.9298471182 -0.2439409463 0.3579206413 -0.9013243751 0.3978221658 0.4542100096 -0.7971391294 0.3423560650 0.4963675248 -0.7977541006 -0.3679630720 0.7958110620 0.4809240390 -0.3649447046 0.8040902036 0.4693125900 -0.8854919765 0.3731741473 0.2768483617 -0.8869875375 0.3678072308 0.2792327868 0.0322109612 0.0956211795 -0.9948964991 0.0299110280 0.0983228078 -0.9947049592 0.0682005180 0.0531616842 -0.9962542470 0.0336775728 0.0939366956 -0.9950084011 0.0706310681 0.0502705848 -0.9962349725 0.0315071911 0.0964940204 -0.9948347606 0.0697395053 0.0513338890 -0.9962435612 -0.9735255989 0.2172937072 0.0709320320 -0.4238642655 -0.7489798857 -0.5092820586 0.4890332899 -0.6031940052 0.6300820847 0.0011450947 0.0684608608 -0.9976531458 0.1759336336 -0.2961214314 -0.9388074640 0.5084273237 -0.3526529534 -0.7855810276 0.1803343933 -0.9835925303 -0.0050240302 0.9711449531 -0.0971703401 -0.2177967057 -0.2651237289 -0.9614092420 0.0734961074 -0.2908700066 -0.5680915216 0.7698484672 0.6003621591 -0.1235822388 -0.7901219578 0.4877591233 0.4212420311 0.7646215985 -0.0679878488 -0.9155823150 -0.3963416164 -0.1218382783 0.3804204853 -0.9167527956 0.3198450744 -0.2090851800 0.9241117443 -0.6040748804 -0.0347710154 -0.7961686475 -0.2391582017 -0.6359421549 0.7337444584 -0.2315475402 -0.6370181136 0.7352507461 0.8045597402 -0.5925235007 0.0399940699 0.5654860835 -0.0073069397 0.8247254683 0.0996568238 0.7561010886 0.6468227433 -0.1534891221 0.6421904285 -0.7510210003 0.7465834720 0.1815155093 -0.6400509661 0.1414902641 -0.5278189953 -0.8374888736 -0.6001501708 -0.5560385499 -0.5750138290 -0.2655348936 0.5367686184 -0.8008562110 -0.8479757160 -0.3158365556 -0.4256576737 -0.7710761558 -0.1248564489 -0.6243816374 0.3590315184 0.2544340762 -0.8979753169 0.3518004008 0.2536805916 -0.9010453015 0.3589464827 0.2544591970 -0.8980021935 0.4646808608 -0.0593532321 0.8834867806 -0.0936938333 -0.1858390522 -0.9781029150 -0.0848740133 -0.1981193270 -0.9764963564 -0.1138965868 -0.6161836765 -0.7793235813 0.0886074469 0.1653505388 0.9822463640 0.7157392690 -0.2994316238 -0.6309183794 0.8781679948 0.0218719176 0.4778520610 0.4081971006 0.9091307193 -0.0828037575 0.9197914337 -0.1472276216 -0.3637413174 0.4277882690 0.5480299994 -0.7187908713 0.4394536178 0.5374448681 -0.7197454631 0.4455997943 0.4935940205 -0.7468639543 -0.0485451712 -0.6506542001 0.7578208748 -0.0481434356 -0.6506589419 0.7578424314 -0.0497859205 -0.6508243994 0.7575941943 -0.0495880000 -0.6508279204 0.7576041501 -0.0496801913 -0.6508528087 0.7575767288 0.3639453587 -0.0156437419 -0.9312889182 0.9432758726 0.2503104543 -0.2181176392 -0.4285957922 0.5268692280 0.7339717048 -0.4289868207 0.5264435854 0.7340486762 -0.4345501317 0.5250402244 0.7317779347 -0.7262361804 0.3025570491 0.6172845716 -0.0362837767 0.2405678103 -0.9699539248 0.0041080237 0.2892676930 -0.9572394298 0.0163309296 0.3096365184 -0.9507147455 0.2013676860 0.3973578832 -0.8952975861 0.1078068207 0.8494489507 -0.5165405789 -0.3693032668 -0.1432350769 -0.9182041221 -0.2700020036 0.0784262269 -0.9596604842 -0.3530753761 -0.2886808534 0.8899444610 -0.3215969153 -0.9253117039 -0.2009320151 0.2932602956 -0.5837383189 -0.7571314114 -0.0298841836 -0.6451795092 -0.7634463547 0.2668525404 0.3719880156 -0.8890526632 0.3191389511 0.1144388689 -0.9407731263 -0.3964463387 0.0135219231 -0.9179583096 -0.3971957577 0.0123140595 -0.9176512921 -0.3732403238 0.0502433444 -0.9263731791 -0.3734578969 0.0499518951 -0.9263012509 0.1842646766 -0.3894710028 0.9024183436 -0.2694043783 0.0358329607 -0.9623602651 -0.2120228128 0.0192417154 -0.9770752700 -0.0860884388 -0.1622198472 0.9829921169 0.6306716739 -0.6959850321 -0.3433046385 0.6344001890 -0.6933293818 -0.3418051617 -0.2452323605 0.8945717348 -0.3736341803 -0.4035450786 0.9127998394 0.0628317024 -0.5502977063 -0.7400354596 0.3866781000 0.1735300123 0.3615615073 -0.9160571004 0.1744375828 0.3463876621 -0.9217305014 0.3688254145 -0.7351868940 -0.5687425116 -0.4895771118 -0.5444945590 -0.6810579467 0.0874893365 0.4826704287 0.8714211802 0.0729885266 0.4577538579 0.8860779201 0.2545622845 0.7718953065 -0.5825595927 0.2177804893 0.8018582901 -0.5564125637 -0.1614394037 -0.9838682500 0.0770751944 -0.0928255784 0.9011144820 0.4235281600 -0.4452201414 -0.8639967522 -0.2351353608 0.7007711064 -0.1018145212 0.7060833235 0.7780975931 -0.0149367344 0.6279657870 -0.1273391841 -0.6337161611 0.7630128173 -0.1228267592 -0.6298727595 0.7669249598 -0.1273078978 -0.6337411756 0.7629972618 -0.1227965146 -0.6299721024 0.7668482028 -0.1228535040 -0.6300199801 0.7667997400 -0.0929523954 -0.6040512259 0.7915061394 -0.1219513415 -0.6310526578 0.7660942588 -0.0934945190 -0.6037176320 0.7916967827 -0.0933730696 -0.6036221396 0.7917839241 -0.0310420145 0.6017014692 0.7981176199 0.5127390104 0.8092160125 -0.2868242534 0.9208305199 0.2509967039 0.2984490044 -0.0789100341 0.2649593422 -0.9610253657 -0.0744763345 0.2682232060 -0.9604736266 -0.0701528753 0.2713326244 -0.9599256122 0.3275079240 0.4936297748 -0.8056476930 0.6858639900 0.7189737161 0.1125494680 -0.1523923509 -0.6449749093 0.7488550846 -0.1524404872 -0.6449528867 0.7488642546 -0.1524539499 -0.6449505434 0.7488635321 -0.1524058475 -0.6449560613 0.7488685710 -0.1524364828 -0.6449525550 0.7488653554 -0.1524564525 -0.6449502335 0.7488632895 -0.1524532015 -0.6449506080 0.7488636288 -0.1523866908 -0.6449582672 0.7488705697 -0.1524017228 -0.6449565362 0.7488690014 0.0626491341 0.755243255