<?xml version="1.0"?>
<VTKFile type="UnstructuredGrid" version="0.1" byte_order="LittleEndian">
  <UnstructuredGrid>
    <FieldData>
      <DataArray type="Float32" Name="TIME"  NumberOfTuples="1" format="ascii"> 0.7000000000 </DataArray>
      <DataArray type="Int32"   Name="STEP"  NumberOfTuples="1" format="ascii"> 70000 </DataArray>
    </FieldData>
    <Piece NumberOfPoints="89" NumberOfCells="89">
      <Points>
        <DataArray type="Float32" NumberOfComponents="3" format="ascii">
 0.4279504294 0.1803440976 0.1065661808 0.4324714001 0.1996418217 0.1074880120 0.8471508394 0.2130622196 0.1379800375 0.2240519832 0.8234698385 0.0652040928 0.2341599373 0.8130221788 0.0650010310 0.2304088816 0.8217230571 0.0671643749 0.2406848590 0.8101014499 0.0667215466 0.2260093733 0.8298971316 0.0689690746 0.2368320238 0.8193828133 0.0689549458 0.7208740553 0.7993450311 0.2965605425 0.6308919549 0.7354713346 0.1615121087 0.6372423583 0.7381451278 0.1619078942 0.7326199931 0.8034666563 0.2899993310 0.6286831961 0.7385814540 0.1560536767 0.6436110432 0.7409036089 0.1624692391 0.7245245587 0.8150787033 0.2914369064 0.6350214147 0.7413815552 0.1565082365 0.6414765015 0.7443900662 0.1574532735 0.5969505087 0.8620352825 0.1346354260 0.6115842259 0.8655780876 0.1370590303 0.1186013077 0.5507002042 0.2988124726 0.1345368188 0.5343850206 0.2917913307 0.2000332587 0.4607354071 0.3928441698 0.2038141625 0.4576440257 0.4153193530 0.5627977219 0.6295828224 0.6870051494 0.5570242905 0.6178203056 0.7029910740 0.5462838923 0.6196052538 0.6908023115 0.5366742384 0.6117170346 0.7036593880 0.5311578674 0.6228556681 0.6835211247 0.5219486454 0.6128331812 0.6929373951 0.1239906557 0.4955918183 0.0781956336 0.0699065825 0.4707828441 0.1255279859 0.1592847483 0.3830123446 0.2819657161 0.2546718924 0.3609127300 0.2390054096 0.2620514161 0.3762017129 0.2389717917 0.2648849773 0.3562770560 0.2420150047 0.2740377252 0.3545856778 0.2443802568 0.2829315951 0.3551149756 0.2463584409 0.0525469442 0.1964790784 0.2345602549 0.4650057053 0.1560065654 0.3755020975 0.4445823235 0.1415014456 0.3795494757 0.5976748049 0.5347279722 0.0837090208 0.6030086887 0.5501055834 0.0836568985 0.6168340438 0.5477228324 0.0837749695 0.6192671575 0.5619825279 0.0839713264 0.6663213994 0.6285262105 0.2598492295 0.8210888366 0.4949851666 0.2540468048 0.8151046358 0.5102614316 0.2592423195 0.8282369588 0.5063994069 0.2560270110 0.8225100689 0.5205073265 0.2610289480 0.8356855746 0.5178224320 0.2577713202 0.8304850770 0.5308689280 0.2626237247 0.8436660167 0.5294581530 0.2592740000 0.4933346520 0.7093422623 0.0253615050 0.5033373919 0.7004568292 0.0218240147 0.5095582704 0.6951540672 0.0269933481 0.5510565212 0.5957492869 0.0523224690 0.3249711386 0.1647142431 0.0788488946 0.8734333501 0.5357909920 0.0600116853 0.8810506842 0.5332214586 0.0626983384 0.8264894514 0.2430089042 0.3514094728 0.8159624336 0.2474579864 0.3545859928 0.8305631092 0.2504561646 0.3464384821 0.8193556416 0.2544867920 0.3499618992 0.8336718190 0.2583505926 0.3412042393 0.8221218960 0.2618742988 0.3451356415 0.8358267481 0.2665508429 0.3358851719 0.7560502933 0.7417580828 0.3238035620 0.7521239346 0.7410689218 0.3179255503 0.7452300191 0.7389198028 0.3215851764 0.7485760473 0.7408009391 0.3120390006 0.7419329037 0.7386738913 0.3161692285 0.5157758763 0.8831638193 0.1224042582 0.5054034591 0.8843290406 0.1163189941 0.1393658339 0.1567545098 0.0264459940 0.0623462947 0.1330907495 0.0796026280 0.0535690230 0.1289167201 0.0840885033 0.0587282841 0.1409182973 0.0753023849 0.1690637675 0.1537375338 0.0757840746 0.8063969846 0.8258101163 0.3318786754 0.8073496279 0.8212114593 0.3376777036 0.8046041919 0.8196838182 0.3325416055 0.8053129188 0.8147589408 0.3381205323 0.8162829939 0.9159935981 0.1984225540 0.8090165502 0.9163375023 0.1986745979 0.3151769900 0.3687489273 0.1424763212 0.3923391249 0.6198080817 0.2099205072 0.9347162365 0.4387304295 0.0767291620 0.5453392549 0.9268898288 0.2395900745
        </DataArray>
      </Points>
      <Cells>
        <DataArray type="Int32" Name="connectivity" format="ascii">
 0 1 2 3 4 5 6 7 8 9 10 11 12 13 14 15 16 17 18 19 20 21 22 23 24 25 26 27 28 29 30 31 32 33 34 35 36 37 38 39 40 41 42 43 44 45 46 47 48 49 50 51 52 53 54 55 56 57 58 59 60 61 62 63 64 65 66 67 68 69 70 71 72 73 74 75 76 77 78 79 80 81 82 83 84 85 86 87 88
        </DataArray>
        <DataArray type="Int32" Name="offsets" format="ascii">
 1 2 3 4 5 6 7 8 9 10 11 12 13 14 15 16 17 18 19 20 21 22 23 24 25 26 27 28 29 30 31 32 33 34 35 36 37 38 39 40 41 42 43 44 45 46 47 48 49 50 51 52 53 54 55 56 57 58 59 60 61 62 63 64 65 66 67 68 69 70 71 72 73 74 75 76 77 78 79 80 81 82 83 84 85 86 87 88 89
        </DataArray>
        <DataArray type="UInt8" Name="types" format="ascii">
 1 1 1 1 1 1 1 1 1 1 1 1 1 1 1 1 1 1 1 1 1 1 1 1 1 1 1 1 1 1 1 1 1 1 1 1 1 1 1 1 1 1 1 1 1 1 1 1 1 1 1 1 1 1 1 1 1 1 1 1 1 1 1 1 1 1 1 1 1 1 1 1 1 1 1 1 1 1 1 1 1 1 1 1 1 1 1 1 1
        </DataArray>
      </Cells>
      <PointData Scalars="overlap">
        <DataArray type="Float32" Name="overlap" format="ascii">
 0.0004167606 0.0005551476 0.0005370782 0.0001666445 0.0001951170 0.0003463506 0.0000579007 0.0000220258 0.0002791883 0.0002746212 0.0001996320 0.0006196595 0.0013360042 0.0005306975 0.0005749085 0.0011819937 0.0009559584 0.0005819505 0.0003514379 0.0001239613 0.0000826653 0.0013793857 0.0005602082 0.0008071194 0.0001118559 0.0012796491 0.0066826892 0.0007405458 0.0023925163 0.0015491821 0.0000497648 0.0004003695 0.0001252993 0.0002420036 0.0003370165 0.0007780510 0.0010204255 0.0010663196 0.0008858973 0.0000448960 0.0022018388 0.0004482704 0.0005694218 0.0004997787 0.0004382361 0.0000068700 0.0002219171 0.0002175436 0.0005421328 0.0003433484 0.0005411185 0.0002866661 0.0001158503 0.0004705899 0.0002802453 0.0002991638 0.0001120354 0.0000918156 0.0002274382 0.0002176104 0.0006213355 0.0004204122 0.0017115025 0.0012303400 0.0014356852 0.0009954971 0.0000632822 0.0001650008 0.0009316586 0.0002527506 0.0009910414 0.0003792920 0.0001290080 0.0002054406 0.0003863174 0.0004883384 0.0001959284 0.0012448886 0.0000609997 0.0000588908 0.0005118847 0.0003025746 0.0005249538 0.0006682729 0.0001916848 0.0004815574 0.0000272177 0.0007895204 0.0007986243
        </DataArray>
        <DataArray type="Float32" Name="contact normal" NumberOfComponents="3" format="ascii">
 0.8157147336 -0.5784542789 0.0003474300 0.9782947666 0.0874334928 0.1878689274 -0.9269424255 0.3241224083 -0.1890037151 -0.4053531210 -0.4183479730 0.8128184427 -0.4113510244 -0.4158431600 0.8110886517 -0.4021424733 -0.4060583230 0.8206083533 -0.4057510463 -0.4096658565 0.8170311955 -0.3879118372 -0.4076177295 0.8266632889 -0.3963382941 -0.3993011460 0.8267251970 -0.6316356692 -0.2025587507 -0.7483357094 -0.3728550553 0.7079854610 0.5997797052 -0.3683576962 0.6952468122 0.6172069976 -0.4142489301 -0.1436657308 -0.8987535712 -0.7366592994 0.6475791492 0.1948700137 -0.3381723767 0.6995190281 0.6295336155 -0.3424553769 -0.0120906001 -0.9394562961 -0.7126226541 0.6433447889 0.2797792620 -0.3408207452 0.7051775314 0.6217442150 0.0748145567 -0.8047390696 0.5888954168 0.1266618418 -0.7916148713 0.5977480016 0.4214589737 0.4107383669 0.8084963373 0.6590392654 0.1711024861 0.7323873196 0.3349667810 0.9395554634 -0.0709421368 0.3640942356 0.9265216868 0.0948311739 0.5436752907 -0.6528413022 -0.5274612899 0.2225042683 -0.2487007273 0.9426769324 0.2674575457 -0.8312425879 -0.4873419962 0.0634016667 -0.4872950270 0.8709327100 0.1996535647 -0.6895395826 -0.6961850459 -0.0719586880 -0.9658647797 -0.2488517119 -0.5452251580 -0.6184111470 -0.5659480368 -0.1820518644 -0.5744822019 -0.7980146104 0.4350252422 -0.0731077570 -0.8974454270 -0.3179025200 0.0827240425 0.9445076604 0.1970678934 0.7090256525 0.6770870472 -0.2759780822 0.0290246213 0.9607255953 -0.2161878648 -0.0067960051 0.9763281321 -0.2218813225 -0.0056442479 0.9750573425 0.5503122132 0.4486685711 0.7041682905 -0.2922444083 0.7109314216 -0.6396637551 -0.6441197810 0.6640980452 -0.3795833164 -0.0115271648 0.0004426458 0.9999334621 -0.0549948865 0.0294358358 0.9980526509 0.0321331509 -0.0286565193 0.9990727023 -0.0114749254 0.0004091167 0.9999340772 0.3281229653 -0.4459524558 -0.8327434940 -0.1538906861 0.2437721880 -0.9575451828 -0.1852003211 0.2829560918 -0.9410827228 -0.1539323959 0.2438244819 -0.9575251639 -0.1854868974 0.2833140769 -0.9409185644 -0.1539723152 0.2438745307 -0.9575059997 -0.1857537758 0.2836474447 -0.9407654659 -0.1849986861 0.2827042064 -0.9411980758 -0.3614474667 -0.3521903461 0.8633178378 -0.6116727821 -0.6855510414 -0.3948115719 -0.3005207337 -0.3514457964 0.8866640518 -0.9543419755 0.2983733966 0.0143076927 -0.7986061444 0.0161218244 0.6016380248 0.1600734854 0.6719243093 -0.7231142385 0.2908503349 0.7446806200 0.6007136230 -0.4070372731 -0.4052083082 -0.8186127811 -0.4281203202 -0.4033003830 -0.8087408686 -0.3949266521 -0.3881622528 -0.8326842169 -0.4252327054 -0.3835205290 -0.8198104355 -0.3734264022 -0.3652796935 -0.8527153497 -0.4252742928 -0.3625154526 -0.8292914582 -0.3557914319 -0.3536776938 -0.8650575390 0.4640227640 -0.8858049886 -0.0056918001 0.3093570530 -0.9411267278 -0.1363036902 -0.0152750955 -0.9896975564 0.1423566587 0.2883081485 -0.9409219657 -0.1776070550 0.2314386390 -0.9604456046 -0.1548560523 0.5021066777 -0.1689427890 -0.8481433948 0.5023982834 -0.1048189620 -0.8582592557 -0.1850577422 -0.9812074042 -0.0546412114 0.0560112984 -0.4042185604 -0.9129458307 -0.3291151991 -0.5005498158 -0.8007078541 0.1502956341 -0.3334690287 -0.9307038354 0.0096883350 0.9207627588 -0.3900026643 -0.8867996405 0.3536229027 0.2975520799 -0.7102371546 0.3169145052 0.6285923803 -0.9096256022 0.2738738012 0.3123690203 -0.9188090209 0.2262870627 0.3233947252 -0.0528220958 -0.5179420095 0.8537832869 -0.0583314537 -0.5232619813 0.8501731238 -0.1806572579 -0.5712264771 0.8006642661 -0.0728912056 -0.1423015060 -0.9871358334 -0.5580971297 -0.8297671488 0.0037513361 -0.4859313327 -0.1034741208 0.8678501289
        </DataArray>
        <DataArray type="Float32" Name="contact force" NumberOfComponents="3" format="ascii">
 204.7765829114 -143.5292021018 -22.9688775320 344.1995424119 -39.7416415168 -0.8800293055 -329.2468571537 112.9356547428 103.4420634563 -8.3058367235 -7.7600900464 114.8761796611 -13.7453370295 -15.2036009997 129.5711624990 -18.1309027083 -36.0583859970 226.5116408677 -2.7867534557 -2.3847301579 39.9406442398 -1.0551882234 -0.5698379283 15.2104224614 0.0539679387 -24.5721984000 190.7800029639 -31.4305288624 -33.3203303325 -184.6373799110 6.7679656113 93.1868199694 93.9140971963 -35.5642734933 263.5654004475 284.2682042692 77.2988001171 -38.0426418485 -921.4517281553 -159.1045688613 268.0582595056 141.7544596785 -21.8005209967 239.7202625611 269.8567502565 140.3820949176 22.1057441038 -806.3580184053 -308.2108366147 420.9536489383 297.0866630805 -10.9740626514 246.7976905976 275.6662735913 105.9253806320 -116.1447086991 185.8933979192 42.1708053239 -39.0191295261 63.8182606051 13.0198255258 24.8498940495 41.9359151661 380.6211533566 206.3601596233 739.3333670128 84.8111276160 320.6118501825 -91.3901451886 160.4517725104 466.9984922145 -72.0452215884 44.5836733702 -16.1657093259 -61.2762918897 370.5967669395 -555.0991450440 580.5557707918 965.9479353040 -3002.1575547285 -2576.7166736488 126.3260631765 -418.1912837415 266.9961626871 230.3197564061 -735.6498661893 -1267.2865108184 -3.0449015479 -779.7082785215 -708.0417239793 -3.1192264297 -29.5703368682 -17.4425688905 -72.6124739213 -156.8463670175 -171.5469873891 2.4519456790 20.6639777830 -84.2654110876 -15.6424901930 -7.3637199341 149.1131801387 40.5190342423 88.7636964818 193.9029577968 -102.7251790428 -20.8145995528 457.0345793654 -120.5953471293 -39.4051745406 600.1222946174 -129.9012617879 -41.8287432880 626.3559570717 71.5968692123 185.9099634757 580.4376436718 -0.7817009641 11.6244706830 -28.8354003164 -531.1197532004 794.8739779035 -1188.4724319591 -15.0057356824 2.6088387945 268.8059963562 -48.7922540333 -8.7836492838 339.8901758067 -9.2059542935 0.8337285614 300.4655713267 -18.0158148234 8.6839381781 262.7487123808 -0.8941809088 -2.2118602763 -4.1177153463 -16.5861202468 106.9627150136 -109.1575623073 -35.1281402740 107.6682984907 -99.4121052290 -43.7136168459 261.3308638200 -266.1359653238 -55.0043810466 170.0885090574 -156.8871107513 -57.7201648076 260.2627827848 -263.5099239237 -55.6639871208 139.6595481879 -129.7303340412 -26.7272354207 54.8557633814 -52.1226633502 -11.5907283127 -32.7834783902 308.8300145820 -116.7174001571 -153.6053944454 21.6558712389 8.8874940439 -12.9873804365 200.3067218034 -69.6857203909 0.7661612304 34.1528394087 -43.2497433984 32.4767082038 33.2862384638 -31.0472369865 139.7967306557 -65.6879887334 10.6526116121 60.3928051279 137.3276306228 -49.5829772290 -276.1865236054 -294.0414592275 -34.8530718871 -190.5337804715 -198.4364408003 -93.8367626314 -770.3838192736 -829.6169212812 -72.6894920969 -567.7805057455 -597.1362911945 -34.3950557466 -669.0942328368 -708.5137757410 -36.3651265721 -481.1657596519 -491.2664420416 -1.8063324293 -29.6501412090 -31.0268976119 89.1341010707 -64.8771608804 -30.1700441864 416.2383068160 -419.6013580947 -259.2067049224 71.3433646622 -157.9244811315 -24.9890327352 433.7799016314 -443.5692057782 -293.8990469306 157.9555841181 -182.0085047745 -104.6706551175 58.7448943755 -48.2295793996 -46.8795298311 89.3259686413 -57.8268917353 -84.2703413320 57.6466117104 -249.1055415231 35.9767392344 58.5447875905 -85.0411283378 -279.6974781173 -16.7286618956 -45.7571765127 -111.3360080051 217.1039844875 -274.7622578946 -669.0406386979 -5.5381020817 36.1802097692 -8.5643116412 -29.4836099754 9.3954244724 19.7141604807 -208.4023370935 70.5019110203 217.5856441512 -155.3141325830 37.5803912029 95.9595136632 -271.0745983792 53.1773078011 166.5863577977 129.6403978781 -245.9076327640 328.4741460385 59.4122046287 -58.7038935285 103.2247831081 -98.6665237827 -31.4584289486 316.1621589591 4.6349329906 4.9338555142 -17.5969057424 -218.2456907563 -424.9041006493 -176.3387966881 -426.6925849358 -200.2851931547 289.3436460714
        </DataArray>
        <DataArray type="Float32" Name="sliding spring" NumberOfComponents="3" format="ascii">
 -0.0000044551 -0.0000062054 0.0001280875 -0.0001018932 0.0003825819 0.0003525390 0.0001696806 -0.0000471567 -0.0009130440 -0.0001790227 -0.0001892730 -0.0001866953 -0.0001911755 -0.0001859957 -0.0001923160 -0.0003635470 -0.0002684708 -0.0003110040 -0.0000628289 -0.0000658180 -0.0000642035 -0.0000226181 -0.0000267613 -0.0000238092 -0.0003691431 -0.0002350884 -0.0002905157 -0.0004035877 -0.0000003101 0.0003407338 -0.0002857125 -0.0000465827 -0.0001226275 -0.0005632752 -0.0000281979 -0.0003044072 -0.0022742321 -0.0004284454 0.0011167145 -0.0004192299 -0.0003436505 -0.0004428014 -0.0005269466 0.0000087523 -0.0002927900 -0.0021291676 -0.0001704464 0.0007783286 -0.0005585096 -0.0002885952 -0.0007589570 -0.0006001690 -0.0000031703 -0.0003253982 -0.0005008321 -0.0002974709 -0.0003428740 -0.0001819450 -0.0001103258 -0.0001075538 0.0000438010 -0.0000248756 -0.0000101954 0.0009156691 -0.0003597243 -0.0007399257 0.0001543309 -0.0000266879 0.0003752485 0.0000881597 -0.0001017239 0.0006553848 -0.0000449761 -0.0001536044 0.0001437583 -0.0011097796 0.0020230519 0.0007956758 0.0005914081 -0.0018377998 0.0034592423 -0.0005453053 0.0011204039 0.0006665733 0.0003126938 -0.0014121719 0.0014883670 -0.0003546743 -0.0006559555 0.0026485097 -0.0000731144 0.0000616959 0.0000030221 0.0001604426 0.0001046849 -0.0001119635 0.0001680726 -0.0001453344 0.0000933103 -0.0001695425 0.0001076413 -0.0000664923 -0.0000037220 0.0003033796 -0.0003166069 -0.0001450546 0.0001909121 -0.0000474361 -0.0000653712 0.0001958016 -0.0000131122 -0.0000669810 0.0002123200 -0.0000140130 0.0012273066 0.0002920811 -0.0011452510 -0.0000393926 0.0000418129 0.0000644688 -0.0017768279 0.0004581563 0.0038166870 0.0000661409 -0.0000138321 0.0000007686 0.0001666838 0.0001046694 0.0000060976 0.0001046757 -0.0000523716 -0.0000048689 0.0000833254 -0.0000476465 0.0000009757 0.0000124817 0.0000020758 0.0000038064 -0.0000216915 -0.0004139132 -0.0001018881 0.0000608592 -0.0003929729 -0.0001301323 -0.0000353192 -0.0010112206 -0.0002518196 0.0000932911 -0.0006206847 -0.0002052813 0.0000429434 -0.0010060209 -0.0002631367 0.0001317466 -0.0005048460 -0.0001782280 0.0000770441 -0.0001955830 -0.0000738901 -0.0005025855 -0.0003703269 -0.0003614935 0.0000770352 0.0002129550 -0.0004891241 -0.0003490580 -0.0002783140 -0.0002286226 0.0000307425 0.0001071715 -0.0001843948 -0.0000041387 -0.0001754920 -0.0000007910 0.0002938407 -0.0002672444 -0.0001832793 0.0001517924 0.0002046519 -0.0003271928 -0.0005675614 0.0006951352 -0.0000618802 -0.0004063285 0.0004933463 -0.0000309237 -0.0017317444 0.0020654413 -0.0001414874 -0.0013401055 0.0015814673 -0.0000447280 -0.0015959922 0.0019691013 -0.0001445818 -0.0012091692 0.0014701995 -0.0000225994 -0.0000650157 0.0000901180 -0.0000101042 -0.0002399757 -0.0001267665 0.0001644809 -0.0013517179 -0.0005915773 0.0010167422 -0.0004092213 0.0000435362 0.0002587637 -0.0014574706 -0.0006440353 0.0010460527 -0.0005849216 -0.0002031393 0.0003857181 -0.0001104412 0.0001952922 -0.0001042825 -0.0001522120 0.0002494803 -0.0001195691 -0.0005585624 0.0001203947 -0.0002702336 -0.0002340739 -0.0001855341 0.0000677866 -0.0001220063 -0.0000726998 0.0000955954 -0.0005824622 0.0001426843 -0.0001451829 0.0000327372 -0.0000137802 -0.0000317207 -0.0000102833 0.0000172203 -0.0000511128 -0.0000540744 0.0001490684 -0.0001362530 -0.0000545758 0.0000674443 -0.0002180586 -0.0001018043 0.0001005380 -0.0003595888 -0.0008378897 0.0002123981 0.0000770111 -0.0003673386 -0.0000082051 -0.0000302536 0.0002581579 -0.0007421588 -0.0004712370 -0.0000323627 -0.0000403207 0.0000082022 -0.0002562875 0.0001768513 0.0009895325 0.0010769259 0.0008372390 0.0007028225
        </DataArray>
      </PointData>
    </Piece>
  </UnstructuredGrid>
</VTKFile>
