<?xml version="1.0"?>
<VTKFile type="UnstructuredGrid" version="0.1" byte_order="LittleEndian">
  <UnstructuredGrid>
    <FieldData>
      <DataArray type="Float32" Name="TIME"  NumberOfTuples="1" format="ascii"> 1.1500000000 </DataArray>
      <DataArray type="Int32"   Name="STEP"  NumberOfTuples="1" format="ascii"> 115000 </DataArray>
    </FieldData>
    <Piece NumberOfPoints="258" NumberOfCells="258">
      <Points>
        <DataArray type="Float32" NumberOfComponents="3" format="ascii">
 0.4252373437 0.2060767054 0.0757876693 0.4854811365 0.1505415412 0.1866199561 0.5304965819 0.1278766036 0.0402730208 0.5053578515 0.1468305266 0.1827147875 0.6407480094 0.1077799100 0.1128465057 0.5396961963 0.3643303723 0.2036343900 0.5529501990 0.3587540240 0.2068743343 0.7525156428 0.1784083055 0.1461365280 0.7588180559 0.1852709849 0.1505523894 0.6782000657 0.4548189253 0.1691096122 0.8499194962 0.2318371569 0.1154917553 0.7819520762 0.3728254068 0.0369803355 0.7956609380 0.3697683907 0.0373573315 0.8171371103 0.3852339252 0.0431595370 0.8177296825 0.3879514986 0.2262001233 0.8971361050 0.3685070058 0.1724867956 0.7853807841 0.3586011547 0.5629267089 0.9385127573 0.4701895700 0.4565682268 0.2429028607 0.7997651183 0.0415104528 0.2551714918 0.8172250628 0.0916049744 0.0747108633 0.9090375265 0.1098874878 0.1544831100 0.7222673666 0.0814303750 0.0555898977 0.8046352010 0.1552688115 0.0623400600 0.7983450183 0.1588053341 0.1717395741 0.7196441736 0.1453284372 0.1912806072 0.8178460533 0.1968110593 0.5690563719 0.7610440028 0.2455669800 0.6831185359 0.7571911723 0.2615707448 0.6509126180 0.7387354972 0.1617859781 0.7062382138 0.8113643552 0.2798549375 0.6565099324 0.7422313251 0.1618471007 0.6550456557 0.7438025447 0.1557907457 0.6050199618 0.8498736636 0.2453941510 0.5199251883 0.7634933451 0.0985674047 0.7273026231 0.8557655438 0.2072211147 0.5584598079 0.8510615789 0.1566952009 0.5653828703 0.8559652104 0.1547896517 0.1725944838 0.4803013226 0.3231634233 0.1672507655 0.4841122763 0.4410818096 0.1365815702 0.6601273611 0.2432664041 0.0837298111 0.6887003792 0.2635685103 0.1603782684 0.6611437834 0.2412917795 0.2572297704 0.4518541896 0.3442203190 0.1229719278 0.7594780250 0.4197343793 0.3081617027 0.4587971389 0.2807727652 0.1434784649 0.7602828666 0.4258462575 0.1541778539 0.7740791702 0.4226170442 0.4303069842 0.5452331324 0.4201081055 0.2451987132 0.8872146196 0.3717889190 0.4432325749 0.9113171774 0.2751738685 0.7597882214 0.3310486003 0.5229639737 0.6607968688 0.0751338872 0.2116397636 0.5404659364 0.0920195468 0.3297362503 0.5366122337 0.0977718403 0.3313934885 0.6517032267 0.9033023693 0.3608394813 0.6995303892 0.9102757931 0.3328533953 0.7122228901 0.2402121234 0.2864525074 0.6938132688 0.1636241616 0.4433234420 0.7704587949 0.3878512969 0.3534737692 0.5690586844 0.3175802350 0.3147238024 0.5465602320 0.2405819510 0.4622758049 0.1210618114 0.2916488128 0.0842548666 0.1786105317 0.3767495028 0.0530529683 0.1498057589 0.4383949645 0.0569522270 0.0952982434 0.4143149944 0.1043033378 0.2083824378 0.4383499453 0.0529792417 0.1970420971 0.4341429006 0.0568978869 0.1050123648 0.4916700333 0.1449122094 0.0997740159 0.5069879041 0.1532888285 0.1199699032 0.6087773353 0.0766860115 0.1246026520 0.6137385982 0.0783843882 0.0729584630 0.6657511853 0.2035614661 0.0763594159 0.6735422408 0.1938403738 0.1369287509 0.3947771126 0.2402882511 0.2424320763 0.3036882066 0.2229777147 0.2368296604 0.2953644586 0.2228568714 0.2489220878 0.3040645244 0.2244178065 0.2295798476 0.2897436726 0.2219792509 0.2436143297 0.2943955970 0.2245630424 0.2550724894 0.3062540134 0.2255265024 0.2611605783 0.3103909360 0.2263473856 0.2674952100 0.3168808238 0.2268985308 0.2744843211 0.3265330165 0.2271731148 0.2820241406 0.3245395506 0.2291794441 0.0745696080 0.2503912595 0.2702181826 0.1133624929 0.0683391865 0.3001086399 0.3080318045 0.1836362597 0.3497987631 0.2824926880 0.1698850030 0.3459080838 0.8217675138 0.1116046310 0.4142468415 0.2875226724 0.2665542335 0.4139158874 0.2909096143 0.2670312860 0.4165804863 0.2561914230 0.3445334276 0.3698328391 0.7284584330 0.6949505245 0.3526878799 0.5475105316 0.5173530265 0.2034855775 0.6009594216 0.5228343551 0.2545231305 0.6193560514 0.5467904607 0.0836566936 0.6391940822 0.5587130560 0.0833005540 0.7297386560 0.6617509270 0.2495937745 0.8259290844 0.4851330235 0.2456214383 0.8336136071 0.4950835931 0.2480383399 0.7577249085 0.7524005412 0.1135639142 0.7694203974 0.6669444199 0.2564665629 0.8014534936 0.7664948398 0.1613457427 0.9209818847 0.5594670124 0.1914698639 0.8972391195 0.6354804579 0.0942823168 0.9113956949 0.7265094530 0.2333844397 0.3657834484 0.5769239096 0.0842816301 0.4789983772 0.7329654384 0.0267502757 0.4424654592 0.6669259913 0.0957278530 0.3842678177 0.1555555595 0.4257100167 0.3324803352 0.0816426727 0.4724034511 0.1722385547 0.1869960313 0.3896022835 0.2159893290 0.1321675871 0.4595835117 0.2121020999 0.1231224457 0.4595932082 0.1386125395 0.0910254273 0.4252849227 0.2544672364 0.1546862135 0.0772038692 0.3214329674 0.0793622581 0.1137720167 0.3283046804 0.0767053959 0.1251511566 0.3628822302 0.1660979068 0.0991033836 0.3620943772 0.1716399958 0.1002091682 0.3653423404 0.1695237978 0.1025729545 0.3683856347 0.1732360092 0.1066781535 0.3295761734 0.2034270888 0.1573684858 0.3374860222 0.2088680506 0.1617384231 0.1805504911 0.1401538849 0.5454513855 0.4610388068 0.4833615137 0.1674946145 0.4567089135 0.4736339761 0.1675298909 0.5197211528 0.3863663468 0.2710381400 0.8799516635 0.5609736677 0.0484569847 0.8717025928 0.5656966676 0.0455760712 0.8780987277 0.5639203069 0.0436406715 0.7715172548 0.0774727495 0.2835944491 0.7250724247 0.0991912297 0.3026834424 0.7022375112 0.0998721590 0.2283771066 0.8424557551 0.1377812677 0.3270996572 0.7741897457 0.1877362134 0.2049934356 0.7658375132 0.1891823856 0.2022739793 0.7702329378 0.1927174611 0.2049906723 0.9067892275 0.4818913699 0.3649418465 0.9001923392 0.4794021334 0.3655746066 0.9035156016 0.3814551361 0.2918162687 0.3484501920 0.9041380163 0.0729055744 0.2975497314 0.8398410663 0.0898191608 0.2990142284 0.8342821221 0.0891411479 0.8073481235 0.6685051207 0.3626350309 0.2542163033 0.3180891391 0.1147321461 0.2559810018 0.3235256684 0.1153796469 0.2610936828 0.3185232339 0.1151054562 0.2625291903 0.3240594360 0.1156734074 0.2676855629 0.3185166157 0.1154358618 0.2635408334 0.3295954570 0.1161584068 0.2688967356 0.3241976482 0.1158607168 0.3473252854 0.2666804791 0.0578283109 0.2803826821 0.4115250443 0.0600866052 0.1973624328 0.4176791178 0.3297178935 0.0975141288 0.2865473184 0.2919011042 0.4665783519 0.1605331554 0.4681159339 0.4849865220 0.0763696098 0.3892603346 0.4927434939 0.0704891729 0.3837415410 0.5505372256 0.0569062087 0.4398343632 0.5037779957 0.1972849910 0.5318290109 0.5081779229 0.1949871647 0.5304096999 0.5025740639 0.1916978105 0.5297161469 0.5069956563 0.1894527698 0.5282707353 0.4415400596 0.1870781637 0.4415413277 0.7887779210 0.0578696630 0.2315228615 0.7473305021 0.0862869046 0.1123741098 0.5454939624 0.9315062185 0.2816741542 0.9324223761 0.1539698812 0.2769671641 0.9317513600 0.1627182951 0.2671951682 0.9287743624 0.4907756331 0.0539748882 0.4217071987 0.9074601728 0.0807713273 0.4209202697 0.9140564986 0.0801637142 0.3614077528 0.9025456542 0.1292916237 0.3547289448 0.9048575959 0.1272648712 0.3595715108 0.9111862323 0.1309669114 0.5337193907 0.8257005701 0.0370764236 0.5646937024 0.8941021618 0.0197384438 0.4075880435 0.8138754070 0.5689695293 0.9749491209 0.8499985104 0.2381828547 0.9371422365 0.8896459302 0.4011939453 0.8722688788 0.0882618780 0.2339126932 0.8686651742 0.0849738896 0.2291511727 0.9068707685 0.1251233269 0.1739789879 0.9086236535 0.1214195290 0.1708883435 0.9047404385 0.1195679154 0.1691277207 0.9065186064 0.1158017443 0.1659973263 0.9082246219 0.1118844664 0.1627140128 0.9042922151 0.1094090678 0.1604121878 0.9059224351 0.1046675912 0.1564280803 0.9031835838 0.0942424451 0.1473482373 0.6525343299 0.8775405591 0.0719759756 0.4832354899 0.8949554549 0.0917393160 0.2211399651 0.0611777686 0.0855238685 0.1510231298 0.7833134742 0.4661555485 0.1481155608 0.7817362683 0.4663035430 0.1532742182 0.7803147751 0.4681740992 0.1455141663 0.7801356055 0.4665109091 0.1501365463 0.7787193740 0.4682969435 0.1473683578 0.7770421363 0.4685167440 0.2928174989 0.8961851996 0.1451461182 0.2960690295 0.8824187017 0.1426148085 0.3965104228 0.9316922292 0.1835974617 0.4113259442 0.9314722604 0.1814917007 0.4013827917 0.9055249616 0.1524632039 0.1594407403 0.1241329404 0.0239134265 0.0943865938 0.1063246478 0.0904976351 0.1063261202 0.2150440302 0.0761934549 0.2007596859 0.1341053527 0.0795190789 0.8183357306 0.8956641005 0.0982024799 0.8124602715 0.8988474606 0.1007587182 0.8163916754 0.9077698763 0.0992218663 0.8002436908 0.9061293963 0.2694544986 0.8247495627 0.9044111746 0.3716310457 0.7887426747 0.9098696527 0.2695171780 0.7022704783 0.0624120014 0.3642153920 0.8666340706 0.1982066727 0.3752765494 0.8707679039 0.0360108255 0.3265234872 0.8436270407 0.0295582247 0.3688271677 0.8855573830 0.8592335985 0.2072246857 0.8885481245 0.8509827975 0.2010708732 0.8267335929 0.8756468801 0.1552433630 0.8226985979 0.8787753401 0.1571459990 0.8247660690 0.8818081724 0.1597852557 0.8208553543 0.8846632695 0.1614786494 0.8229141474 0.8878139034 0.1642028072 0.8170165921 0.8874659271 0.1631603117 0.8189428640 0.8907259563 0.1659183090 0.8149221156 0.8938136222 0.1677819403 0.8107259895 0.8972904769 0.1699416831 0.5761341129 0.5350950170 0.0338698992 0.5799869807 0.5299846098 0.0416306445 0.9092516856 0.1045601711 0.0862692377 0.9071298277 0.1102309866 0.0907251847 0.9066161661 0.1146511703 0.0944239181 0.9096122149 0.1436355398 0.1199314017 0.9075232513 0.1182493483 0.0976917389 0.9071306565 0.1330972748 0.1103828542 0.9099262895 0.1212653189 0.1007534056 0.9094120183 0.1285142192 0.1068860727 0.5425548590 0.0796039489 0.3645614108 0.9417602509 0.2738418491 0.1301981953 0.9274834831 0.2772901816 0.1306469827 0.3674450812 0.4697292405 0.0752716898 0.2031346444 0.6324423287 0.0587965361 0.3273172391 0.6604754128 0.1370348977 0.3710088658 0.5214461938 0.0774459526 0.9709267517 0.3525778018 0.0776104599 0.9700049555 0.3595905205 0.0787274728 0.9301584990 0.4619609560 0.1027872949 0.3959079426 0.7261167023 0.1182811655 0.5179268108 0.4792778166 0.0676206955 0.0939078922 0.3567921381 0.3696885068 0.7005394370 0.0481528264 0.4397533829 0.0708141460 0.4062981439 0.2652719970 0.8351930893 0.9136677681 0.4451872444 0.4812823192 0.9175283974 0.1880028087 0.4755074858 0.9116017125 0.1841613606
        </DataArray>
      </Points>
      <Cells>
        <DataArray type="Int32" Name="connectivity" format="ascii">
 0 1 2 3 4 5 6 7 8 9 10 11 12 13 14 15 16 17 18 19 20 21 22 23 24 25 26 27 28 29 30 31 32 33 34 35 36 37 38 39 40 41 42 43 44 45 46 47 48 49 50 51 52 53 54 55 56 57 58 59 60 61 62 63 64 65 66 67 68 69 70 71 72 73 74 75 76 77 78 79 80 81 82 83 84 85 86 87 88 89 90 91 92 93 94 95 96 97 98 99 100 101 102 103 104 105 106 107 108 109 110 111 112 113 114 115 116 117 118 119 120 121 122 123 124 125 126 127 128 129 130 131 132 133 134 135 136 137 138 139 140 141 142 143 144 145 146 147 148 149 150 151 152 153 154 155 156 157 158 159 160 161 162 163 164 165 166 167 168 169 170 171 172 173 174 175 176 177 178 179 180 181 182 183 184 185 186 187 188 189 190 191 192 193 194 195 196 197 198 199 200 201 202 203 204 205 206 207 208 209 210 211 212 213 214 215 216 217 218 219 220 221 222 223 224 225 226 227 228 229 230 231 232 233 234 235 236 237 238 239 240 241 242 243 244 245 246 247 248 249 250 251 252 253 254 255 256 257
        </DataArray>
        <DataArray type="Int32" Name="offsets" format="ascii">
 1 2 3 4 5 6 7 8 9 10 11 12 13 14 15 16 17 18 19 20 21 22 23 24 25 26 27 28 29 30 31 32 33 34 35 36 37 38 39 40 41 42 43 44 45 46 47 48 49 50 51 52 53 54 55 56 57 58 59 60 61 62 63 64 65 66 67 68 69 70 71 72 73 74 75 76 77 78 79 80 81 82 83 84 85 86 87 88 89 90 91 92 93 94 95 96 97 98 99 100 101 102 103 104 105 106 107 108 109 110 111 112 113 114 115 116 117 118 119 120 121 122 123 124 125 126 127 128 129 130 131 132 133 134 135 136 137 138 139 140 141 142 143 144 145 146 147 148 149 150 151 152 153 154 155 156 157 158 159 160 161 162 163 164 165 166 167 168 169 170 171 172 173 174 175 176 177 178 179 180 181 182 183 184 185 186 187 188 189 190 191 192 193 194 195 196 197 198 199 200 201 202 203 204 205 206 207 208 209 210 211 212 213 214 215 216 217 218 219 220 221 222 223 224 225 226 227 228 229 230 231 232 233 234 235 236 237 238 239 240 241 242 243 244 245 246 247 248 249 250 251 252 253 254 255 256 257 258
        </DataArray>
        <DataArray type="UInt8" Name="types" format="ascii">
 1 1 1 1 1 1 1 1 1 1 1 1 1 1 1 1 1 1 1 1 1 1 1 1 1 1 1 1 1 1 1 1 1 1 1 1 1 1 1 1 1 1 1 1 1 1 1 1 1 1 1 1 1 1 1 1 1 1 1 1 1 1 1 1 1 1 1 1 1 1 1 1 1 1 1 1 1 1 1 1 1 1 1 1 1 1 1 1 1 1 1 1 1 1 1 1 1 1 1 1 1 1 1 1 1 1 1 1 1 1 1 1 1 1 1 1 1 1 1 1 1 1 1 1 1 1 1 1 1 1 1 1 1 1 1 1 1 1 1 1 1 1 1 1 1 1 1 1 1 1 1 1 1 1 1 1 1 1 1 1 1 1 1 1 1 1 1 1 1 1 1 1 1 1 1 1 1 1 1 1 1 1 1 1 1 1 1 1 1 1 1 1 1 1 1 1 1 1 1 1 1 1 1 1 1 1 1 1 1 1 1 1 1 1 1 1 1 1 1 1 1 1 1 1 1 1 1 1 1 1 1 1 1 1 1 1 1 1 1 1 1 1 1 1 1 1 1 1 1 1 1 1 1 1 1 1 1 1
        </DataArray>
      </Cells>
      <PointData Scalars="overlap">
        <DataArray type="Float32" Name="overlap" format="ascii">
 0.0001717689 0.0001065331 0.0000127276 0.0001479067 0.0000575089 0.0001107353 0.0000963863 0.0000551756 0.0002356632 0.0002389770 0.0001287918 0.0000888403 0.0000508162 0.0004285095 0.0002374734 0.0000809605 0.0000582699 0.0000963141 0.0000551617 0.0001843267 0.0001016853 0.0000876409 0.0000353655 0.0000953006 0.0002113495 0.0000248572 0.0001878001 0.0000187696 0.0000878396 0.0000978459 0.0001294083 0.0001331711 0.0000026115 0.0001133731 0.0000586896 0.0000348265 0.0001605595 0.0000117840 0.0001506231 0.0002068782 0.0000997056 0.0001279174 0.0000076631 0.0001881668 0.0003010608 0.0001038497 0.0000306889 0.0001385206 0.0000298423 0.0003333186 0.0000367656 0.0001112952 0.0000279787 0.0000619688 0.0000183667 0.0000200729 0.0001825105 0.0000350301 0.0002289857 0.0002167644 0.0000158015 0.0000503507 0.0000252066 0.0000303334 0.0000184829 0.0000839512 0.0001138955 0.0000135015 0.0000140029 0.0001227177 0.0001044140 0.0000667423 0.0000640815 0.0000461034 0.0000739870 0.0000444411 0.0000847476 0.0000164672 0.0000237827 0.0000933494 0.0001099147 0.0001318399 0.0001339344 0.0001292897 0.0000757767 0.0001126653 0.0000061706 0.0000110015 0.0000463690 0.0000119495 0.0000489121 0.0000511976 0.0000187413 0.0000174196 0.0000409215 0.0001227223 0.0000266394 0.0000504762 0.0001364360 0.0001036182 0.0001955629 0.0000378249 0.0001419512 0.0000403015 0.0002383272 0.0000085352 0.0000289044 0.0000009071 0.0000550020 0.0000389031 0.0001086366 0.0000618322 0.0001690434 0.0001203237 0.0000404334 0.0000292683 0.0000284481 0.0000085677 0.0000185223 0.0000126670 0.0000476029 0.0000029735 0.0000427908 0.0000289949 0.0000565148 0.0000194669 0.0000212289 0.0000159192 0.0000204324 0.0000335386 0.0000386919 0.0000351869 0.0000716632 0.0000376666 0.0000729171 0.0000587231 0.0000307986 0.0002228935 0.0000649646 0.0000117442 0.0000731944 0.0000515079 0.0000171598 0.0000286080 0.0000056393 0.0000276580 0.0000953798 0.0003137872 0.0003148366 0.0000145221 0.0000479139 0.0001432533 0.0001209918 0.0000066332 0.0000327532 0.0000058428 0.0000187551 0.0000371958 0.0000728554 0.0000840035 0.0000046620 0.0001035640 0.0000459507 0.0000027631 0.0001938454 0.0000094722 0.0000624332 0.0000292993 0.0000312572 0.0000197762 0.0000199317 0.0000658476 0.0002046075 0.0000511071 0.0000805573 0.0001282858 0.0000892514 0.0000382436 0.0003451848 0.0001059214 0.0000386585 0.0000446771 0.0000340549 0.0000201743 0.0000065501 0.0000052649 0.0000517496 0.0000021344 0.0000344033 0.0000378912 0.0000106901 0.0000265327 0.0000192741 0.0000050518 0.0000201378 0.0000471406 0.0000062595 0.0000291495 0.0000510260 0.0000372964 0.0000136006 0.0000072570 0.0001256207 0.0000922192 0.0000500284 0.0000396643 0.0000440405 0.0000109013 0.0000198643 0.0000773214 0.0000482254 0.0000833654 0.0000735814 0.0000553123 0.0000722492 0.0000851303 0.0000013089 0.0000586171 0.0000086755 0.0000646574 0.0000841261 0.0000059081 0.0000093522 0.0000340967 0.0000550575 0.0000059975 0.0000433642 0.0000465061 0.0000501994 0.0000207251 0.0000114958 0.0000178772 0.0000536908 0.0000252473 0.0000147982 0.0000186599 0.0000269132 0.0000016405 0.0000569881 0.0000406476 0.0000433070 0.0000465926 0.0000197523 0.0000325054 0.0000374619 0.0000211804 0.0000363034 0.0000111513 0.0000103412 0.0000263411 0.0000292326 0.0000212042 0.0000665179 0.0000371767 0.0000404849 0.0000117160 0.0000903812 0.0000770059
        </DataArray>
        <DataArray type="Float32" Name="contact normal" NumberOfComponents="3" format="ascii">
 0.9734846780 -0.1935862698 -0.1218685268 -0.0520942242 0.6086671884 -0.7917136133 0.1710238931 0.9263264437 0.3356637421 0.0026727850 0.5941251669 -0.8043681634 -0.2092664047 0.7325047156 -0.6477996708 0.1340940364 -0.0758096660 -0.9880646153 0.2255101269 -0.0838211761 -0.9706282466 -0.3767908737 0.6353703725 -0.6740423780 -0.3279863317 0.6780548591 -0.6577739537 -0.1623115832 -0.9494197118 -0.2688069211 -0.8528925838 0.4688098755 0.2297640988 -0.1362178243 -0.4498997632 0.8826295414 -0.1441948263 -0.4762913950 0.8673836286 -0.1139782602 -0.3846725609 0.9159890704 0.0216381305 -0.0926278966 -0.9954656519 -0.8294265064 -0.0639189294 0.5549468812 0.4851051628 -0.1486457167 0.8617293264 0.1615599496 -0.0512569262 0.9855308773 -0.7341822262 -0.5293686389 0.4251415093 -0.7982350635 -0.6017522789 0.0267390761 -0.0025463388 -0.9532557803 0.3021538241 0.3776494978 0.7961038620 0.4728630856 0.7236265639 0.5232927963 -0.4500324937 0.7562986721 0.4868319329 -0.4370434621 0.2874720965 0.6851718996 -0.6692527637 -0.5060116057 -0.4787612330 -0.7174537871 0.2186015713 -0.1852668844 -0.9580655168 -0.5741725772 0.6601034149 -0.4843442301 -0.5220900832 0.6612870939 0.5386291158 -0.1017270810 -0.0789706880 -0.9916729458 -0.3295913975 0.7299051052 0.5988389166 -0.7236484404 0.6852025123 0.0826465478 0.4199059925 -0.7552096717 -0.5033262454 0.1583272680 0.2583198605 0.9529970230 -0.9390596092 -0.3417692013 0.0368898823 0.5345108678 -0.8442026556 -0.0402493278 0.6027275956 -0.7979461893 0.0011508102 0.5446727036 0.8332221654 0.0952495092 0.5191403597 0.7636677533 -0.3838031389 0.0625849610 -0.3619379639 0.9300989372 0.7528009452 -0.0112882588 0.6581514356 0.1005033040 0.2943795071 0.9503892843 -0.1915192790 0.8124170722 -0.5507257634 0.3021068789 -0.4211839832 -0.8551815515 -0.2542096212 0.5964519079 0.7613294885 0.4483308145 -0.3903901328 -0.8041113262 0.4957677196 -0.3655670122 -0.7877659093 -0.5633437531 0.6030400948 -0.5647888631 0.6901175692 -0.6113907796 -0.3872196473 -0.1287602433 -0.6899959439 0.7122684867 0.1905068987 -0.3110728576 0.9310965572 -0.6149860387 -0.3307800502 0.7158049529 0.3296271604 0.0668317413 -0.9417427746 0.1806146853 0.1577983132 -0.9708130756 0.9309532136 0.0793692122 0.3564079718 -0.5531926798 0.4540572468 0.6984338735 -0.4260038637 0.6653797403 0.6130175440 0.1640654962 0.8564131834 -0.4895293374 0.1033288747 -0.3375934866 0.9356034317 0.0150713917 -0.1813981392 0.9832942430 0.3565443786 0.5493205567 -0.7557268237 -0.3452295798 0.8257753613 0.4459950559 -0.8797315533 -0.1135127198 -0.4617220556 -0.2725318621 -0.8537252341 -0.4437111772 -0.0727584094 -0.8079514692 -0.5847398031 -0.2014609778 0.9568674576 0.2093278362 -0.5940008849 0.7292121181 0.3397243522 0.3403796803 0.5381512899 -0.7710608682 0.3403745892 0.5381509882 -0.7710633261 0.1163907545 -0.4660907306 0.8770476744 0.1145800505 -0.4588333315 0.8811035046 -0.0819060678 -0.9403679832 -0.3301506509 0.7086777737 -0.6139882007 -0.3475547475 0.4509049592 -0.3566877036 -0.8182044976 -0.2248475736 0.1362271267 0.9648242009 -0.2245193635 0.1358207073 0.9649579218 -0.2243816756 0.1356506060 0.9650138739 -0.2245652211 0.1358774849 0.9649392575 -0.2239156392 0.1350732294 0.9652030922 -0.2241106671 0.1353149986 0.9651239610 -0.2240171161 0.1352101816 0.9651603693 -0.2240029560 0.1354446114 0.9651307854 -0.2244176973 0.1360251685 0.9649527712 -0.2228611564 0.1365102212 0.9652449764 0.4554127847 -0.4263538795 -0.7815507437 0.4692555271 0.3268256692 -0.8203561618 0.2232048651 -0.1304573032 -0.9660023190 0.2197023170 -0.1293493764 -0.9669537893 0.1280234492 0.2410150269 0.9620404114 -0.4716371593 0.7780533622 0.4149594625 -0.4868115982 0.7690253149 0.4142638445 0.1585675893 -0.5076314097 0.8468569369 -0.1735256340 0.1318250336 0.9759667079 0.7112939732 0.5787102694 -0.3989427375 -0.3195327072 -0.4913188391 -0.8102497438 -0.0203525693 0.0087479132 0.9997545934 0.0739197350 -0.0371019037 0.9965737913 0.2137921430 -0.5840792951 -0.7830353099 -0.1319051796 0.3313366693 -0.9342467742 -0.1319160008 0.3313453914 -0.9342421530 0.1266418478 -0.0263563673 0.9915982978 0.2126642904 -0.5856035127 -0.7822035704 -0.3290749799 -0.8222779309 0.4642937238 -0.8646202255 0.4694667906 -0.1789770885 -0.0563285648 0.3328003546 0.9413134530 -0.0537171983 -0.7628755417 -0.6443099956 0.6677839982 0.3242041000 -0.6700419639 -0.2749975543 -0.3378909794 0.9001144545 -0.1797039746 -0.3573139325 -0.9165332701 -0.8830777063 0.4670625747 -0.0450146196 -0.4617311124 0.4017788726 -0.7908085213 0.5623971374 -0.5890632670 -0.5802705638 0.3154294528 -0.0872996083 -0.9449248852 0.2933791655 -0.1536728753 -0.9435641540 0.9399814133 0.2807683303 0.1939177333 0.9105637878 -0.4059199861 0.0781188408 0.2055293123 0.9749404165 0.0851403908 0.1577606860 0.9753027122 0.1545839109 -0.6830437412 -0.2326659279 0.6923278223 -0.6877287864 -0.2276182616 0.6893613301 -0.6805553329 -0.2359803670 0.6936553216 -0.6626093369 -0.2314319157 0.7123118243 0.4887407679 -0.4803619786 -0.7282752442 0.7526887425 -0.6503302597 -0.1026168126 -0.3900146742 -0.0264148879 0.9204296864 0.7457112322 0.2611782724 0.6129442619 0.1374516324 -0.6166533326 0.7751423844 -0.5387483845 0.7800903716 0.3181339189 0.2635587322 0.7990077792 0.5404843785 0.2656055646 0.8414860758 0.4704836536 0.2040080421 0.6371587365 -0.7432425333 -0.1919238632 0.9570531843 0.2172888241 0.2940317634 0.5578247540 -0.7761294131 0.0139246502 0.6942659320 0.7195838518 -0.2828330832 0.4728548530 -0.8345140712 -0.1771514088 -0.5525370206 0.8144447306 -0.1947836155 -0.5412545609 0.8179870680 -0.1946332020 -0.5348639070 0.8222156151 -0.0270882550 0.3249626799 -0.9453388192 -0.4316838450 0.5697481219 -0.6993111865 -0.4925690343 0.7704034794 -0.4047891122 -0.7625214095 -0.6247886038 -0.1679294512 0.3000164632 0.2164409126 -0.9290551400 0.2987571527 0.2142235942 -0.9299744165 -0.2014212411 0.3239864090 -0.9243712947 0.0333847902 0.0944180931 -0.9949727029 0.0310917989 0.0971070500 -0.9947881789 0.0694238137 0.0519711772 -0.9962325687 0.0348747362 0.0927090659 -0.9950822990 0.0718598759 0.0490783237 -0.9962065430 0.0327118090 0.0952533555 -0.9949154415 0.0709731645 0.0501341024 -0.9962175373 -0.9723227347 0.2214754616 0.0744118233 -0.4267132263 -0.7477544065 -0.5087034205 0.4853737757 -0.6103081922 0.6260480879 0.6579262475 -0.6408847589 -0.3954741188 -0.1732239982 -0.9843762021 0.0315743427 0.3663784312 -0.3308095063 0.8696734535 0.3652592189 -0.3367279238 0.8678709630 -0.8262085144 0.2357059127 -0.5116856588 -0.0863994533 0.4256964538 -0.9007317379 -0.0266423338 0.4019586184 -0.9152701542 -0.1126129079 0.3590873895 -0.9264850672 -0.0806356716 0.3659472082 -0.9271356585 0.3750822499 -0.2064875866 0.9037013790 -0.5832728701 -0.0685222119 -0.8093809149 -0.2279748076 -0.6369308994 0.7364417944 0.8170950006 -0.5755619006 0.0329280824 0.1673571191 0.7404461881 0.6509462629 0.1666294087 0.7406039254 0.6509535051 -0.3405757462 0.2405782476 -0.9089170852 -0.8427896488 -0.3170965989 -0.4349199408 -0.7651567207 -0.1246775502 -0.6316571074 0.3603402754 0.2519539699 -0.8981503677 0.3531070867 0.2512038537 -0.9012280562 0.3602474566 0.2519783496 -0.8981807621 -0.0801424306 -0.1904372268 -0.9784226354 0.0832894193 -0.2783933306 -0.9568490090 0.7244641232 -0.2853605781 -0.6274719712 0.8849654175 0.0265010414 0.4649020376 0.9065736971 -0.1212807022 -0.4042463643 0.4373203679 0.5458528218 -0.7146996522 0.4259469969 0.5549582187 -0.7145561779 -0.0448186324 -0.6495378689 0.7590071456 -0.0441730249 -0.6495331370 0.7590490418 -0.0457292900 -0.6495477960 0.7589443278 -0.0451198920 -0.6495437830 0.7589842352 -0.0444747568 -0.6502448817 0.7584217757 -0.0460123184 -0.6502291854 0.7583435059 -0.0454586985 -0.6502351147 0.7583718101 -0.0465362923 -0.6504101002 0.7581563658 -0.9976081663 0.0313978647 -0.0615801963 0.3721243002 -0.0087333585 -0.9281418177 0.9389400142 0.2599599326 -0.2254162442 -0.2186752700 0.4419273723 0.8699892665 -0.2211567169 0.4415501876 0.8695534132 -0.2167165851 0.4422207950 0.8703302191 -0.2231373999 0.4412467900 0.8692013410 -0.2195941553 0.4408179806 0.8703205817 -0.2218529338 0.4405126076 0.8699022464 0.4974473293 0.6970737731 -0.5163664488 0.0085611921 0.3179777139 -0.9480595337 -0.3634289919 -0.1430513272 -0.9205735634 -0.2613980279 0.0769069532 -0.9621623520 -0.3595059322 -0.2955210080 0.8851117548 -0.3192079490 -0.9260293483 -0.2014346825 0.2967977797 -0.5829056827 -0.7563941056 0.2702779207 0.3686940912 -0.8893899666 0.3188498074 0.1037068075 -0.9421144826 -0.3930479275 0.0136390158 -0.9194168282 -0.3937899173 0.0124451331 -0.9191162166 -0.3697971454 0.0503758188 -0.9277458424 0.2028922949 -0.3833708478 0.9010335786 -0.2535727694 -0.0158719331 -0.9671860898 0.0282708084 0.2249289148 0.9739649607 0.1790401696 0.3551727625 -0.9174949190 -0.5896901696 -0.5066671415 -0.6289307685 0.0716365608 0.4849415800 0.8716076337 0.2909630239 0.7825298531 -0.5504430468 0.7065303832 -0.1008654596 0.7004576909 0.7834485361 -0.0141111795 0.6212964396 -0.1305567998 -0.6340667189 0.7621773534 -0.1303652455 -0.6339038517 0.7623455972 -0.1258416513 -0.6300403602 0.7662982600 -0.1257802957 -0.6301113849 0.7662499330 -0.0959522249 -0.6041349116 0.7910841795 -0.1258053027 -0.6301325102 0.7662284551 -0.0959524847 -0.6041351477 0.7910839677 -0.0964697837 -0.6037780940 0.7912936206 -0.0963209079 -0.6036593164 0.7914023707 0.7074615863 0.7013384865 0.0873065359 0.7334352147 0.6777179428 0.0526419590 -0.1475621649 -0.6445726166 0.7501676808 -0.1476111862 -0.6445503633 0.7501771570 -0.1476254252 -0.6445478982 0.7501764731 -0.1475824541 -0.6445529194 0.7501806138 -0.1476085982 -0.6445498730 0.7501780875 -0.1476279480 -0.6445475804 0.7501762497 -0.1475593450 -0.6445556311 0.7501828298 -0.1475756561 -0.6445537171 0.7501812658 0.4297925364 -0.3397530063 0.8365681505 0.8640955256 -0.3271955064 0.3824683298 -0.5870544722 -0.7902934898 -0.1755085372 -0.4138792733 -0.8613896520 -0.2944686987 0.9629806299 -0.2493553880 -0.1024216622 -0.5265185544 -0.8453164515 -0.0906548878 -0.2333344640 0.8007053390 -0.5517481201 -0.8393335982 -0.0907888907 -0.5359817985 -0.8525641646 -0.0855747950 -0.5155689088 -0.4686154244 -0.8421788043 -0.2667104153 -0.4583413258 0.0368452737 0.8880121930 -0.6133667585 -0.0410330614 0.7887315814 -0.0006933508 0.4225615172 0.9063339801 0.9799451312 -0.1117905064 0.1649558200 -0.6630262158 -0.6874861687 0.2962414641 -0.1635237541 0.1137637791 0.9799580524 -0.3656876028 -0.1935032829 0.9104004925 -0.3615636651 -0.2446180734 0.8996853418
        </DataArray>
        <DataArray type="Float32" Name="contact force" NumberOfComponents="3" format="ascii">