<?xml version="1.0"?>
<VTKFile type="UnstructuredGrid" version="0.1" byte_order="LittleEndian">
  <UnstructuredGrid>
    <FieldData>
      <DataArray type="Float32" Name="TIME"  NumberOfTuples="1" format="ascii"> 3.7000000000 </DataArray>
      <DataArray type="Int32"   Name="STEP"  NumberOfTuples="1" format="ascii"> 370000 </DataArray>
    </FieldData>
    <Piece NumberOfPoints="399" NumberOfCells="399">
      <Points>
        <DataArray type="Float32" NumberOfComponents="3" format="ascii">
 0.4248653543 0.2068250671 0.0759427342 0.5299832365 0.1286323880 0.0400906706 0.5050732903 0.1472905011 0.1825915390 0.6403306872 0.1082659870 0.1124596473 0.5396124323 0.3646964529 0.2040002886 0.5528625685 0.3591022274 0.2072261618 0.5678908782 0.4472841322 0.1939265658 0.7522014491 0.1787387923 0.1457376614 0.7585132268 0.1855913182 0.1501547052 0.6781370996 0.4551486214 0.1694656126 0.8496087879 0.2321588977 0.1150671074 0.7816291245 0.3733972677 0.0369725381 0.7953317605 0.3703142897 0.0373490722 0.8168259942 0.3857430695 0.0431748910 0.8042875623 0.3963504041 0.2240351791 0.8177013850 0.3880440838 0.2261936631 0.8970056313 0.3686626508 0.1723157102 0.7489576065 0.3245509559 0.6726874742 0.7715936279 0.2992913797 0.6582616933 0.7860263327 0.3638999054 0.5621503841 0.8677399135 0.6052384356 0.5111380899 0.9118153523 0.5556482341 0.5587192980 0.8933346015 0.6065778619 0.4947004572 0.9262234331 0.5446457262 0.5458334001 0.9417327907 0.3093616819 0.5254652947 0.9349241183 0.3343199985 0.5344022130 0.9466583754 0.4740618664 0.4508187762 0.2426831931 0.7997978778 0.0414071208 0.2550042529 0.8173388975 0.0914575362 0.0745409618 0.9091234899 0.1097899842 0.1543236525 0.7223192668 0.0815086401 0.0388482257 0.8885766154 0.1662300955 0.0554832436 0.8047837617 0.1553459853 0.0622453940 0.7985056794 0.1588802777 0.1716657127 0.7198409404 0.1453823398 0.1846703127 0.8263776314 0.1958309625 0.5696626168 0.7614155271 0.2455268104 0.6836956597 0.7584629089 0.2617669972 0.6518270771 0.7389198075 0.1620805298 0.7064496989 0.8129142501 0.2796419170 0.6573952668 0.7424563171 0.1621258012 0.6559150299 0.7439887506 0.1560626394 0.6050541091 0.8504645622 0.2446691342 0.6094910034 0.8548456724 0.2417826140 0.5207960485 0.7623147304 0.0984628462 0.7326503555 0.8581093446 0.2193674391 0.7273893426 0.8568455354 0.2066727148 0.5647760148 0.8549309207 0.1613302856 0.5655437136 0.8555396365 0.1539496152 0.1730880473 0.4807041234 0.3236695119 0.1676982585 0.4846855843 0.4415917037 0.1372092017 0.6603893972 0.2434467954 0.0843619810 0.6890419917 0.2636709775 0.1610016006 0.6613732927 0.2414224563 0.2576849419 0.4522144768 0.3447850859 0.2908211963 0.4616807294 0.4187203352 0.2909890416 0.5655089771 0.4523275279 0.3086335202 0.4589967028 0.2813305748 0.1182090184 0.7733037020 0.4080899182 0.2713210309 0.7854265510 0.2555505955 0.4240762163 0.5343441463 0.4164800165 0.4308569046 0.5455602471 0.4205647535 0.2460009486 0.8876086980 0.3715553495 0.3711239321 0.8402714684 0.4486928588 0.3884546532 0.8571707652 0.4473811682 0.4440475469 0.9114116152 0.2749308171 0.5616935078 0.7792372131 0.4616556025 0.7554629005 0.3393613843 0.5253674046 0.7491421017 0.3251155359 0.5221864984 0.7310399545 0.1923221837 0.5211140084 0.6605270111 0.0750022377 0.2089066674 0.6490922583 0.1078241072 0.2421730737 0.6082326076 0.1071845686 0.3161804262 0.5368083769 0.0942192418 0.3297713870 0.6497662904 0.8867026606 0.4452710309 0.6558274344 0.9007453476 0.3525091607 0.6572068854 0.9097059615 0.3464140476 0.7437351517 0.9446357168 0.5283420915 0.6975283434 0.9102990782 0.3310050711 0.7118967454 0.2412318334 0.2823335115 0.6923338215 0.1618249101 0.4376714910 0.7639624395 0.3793125437 0.3440289639 0.7707359491 0.3872248308 0.3523729812 0.5690854862 0.3189427604 0.3113882734 0.5335512473 0.2357770898 0.4478709096 0.4819228416 0.2672508457 0.3471232088 0.4709346290 0.3273643932 0.5039577247 0.4582435779 0.3355683486 0.5055493529 0.3861279128 0.4139790688 0.4441313896 0.5795573845 0.5972596266 0.5628778115 0.1272842193 0.2954917329 0.0794074966 0.1210213851 0.2920251861 0.0845411005 0.1781406203 0.3772355989 0.0528338946 0.1491842142 0.4388039507 0.0568121292 0.0950511922 0.4146549149 0.1045542478 0.2077572811 0.4386270676 0.0527654780 0.1964211976 0.4344281653 0.0567128659 0.2718646280 0.5419334524 0.0599523797 0.1116352457 0.4730193149 0.1348029703 0.1123440291 0.4827921501 0.1420333155 0.1047364126 0.4920109468 0.1450383604 0.0995442632 0.5073279341 0.1534453029 0.1196637061 0.6091639549 0.0768629240 0.1243076556 0.6141210464 0.0785436648 0.0731066397 0.6660883340 0.2039452712 0.0764848348 0.6738814903 0.1942217367 0.1368992372 0.3952857973 0.2410299923 0.2422131193 0.3041289679 0.2229841944 0.2365964670 0.2958150224 0.2228484093 0.2487067487 0.3044898030 0.2244117575 0.2293353945 0.2902092041 0.2219680379 0.2433830558 0.2948292865 0.2245372477 0.2197443425 0.2869282758 0.2202319999 0.2548631309 0.3066654215 0.2255145071 0.2368432668 0.2880811671 0.2239869413 0.2496211990 0.2953273540 0.2258875219 0.2609598781 0.3107894955 0.2263358146 0.2673065714 0.3172669684 0.2268944077 0.2743125140 0.3269064548 0.2271852942 0.0603279841 0.3238594981 0.2405523319 0.2818531571 0.3248939414 0.2291692249 0.2734195224 0.3270488434 0.3139741334 0.2819439269 0.3344277375 0.3145351578 0.0744058646 0.2508629689 0.2704875252 0.0724361512 0.1488444049 0.2300775337 0.1130159662 0.0685986531 0.2994133937 0.1289101893 0.0610862803 0.3107439675 0.2422529857 0.1318703371 0.3407276358 0.2508575302 0.1370576870 0.3419975446 0.2667434422 0.1556164230 0.3433604160 0.2741725978 0.1652458277 0.3438922731 0.2824437402 0.1696903085 0.3451599301 0.8679182734 0.1866464630 0.4388061271 0.8336812284 0.1057840509 0.4125783749 0.7587846902 0.1533901838 0.5977299226 0.7548301617 0.1422533816 0.5935168551 0.7470155348 0.1331139943 0.5912836995 0.2973175201 0.2801243081 0.5031614208 0.2898200947 0.2700269415 0.4140873542 0.2534999979 0.3450424450 0.3698626110 0.3102811986 0.3803418706 0.4286196280 0.6312901186 0.7388022586 0.5144400340 0.6934322686 0.6467628931 0.3835487163 0.7179979655 0.8411225052 0.5228729340 0.7601122392 0.7119191612 0.4431570896 0.7150669030 0.7763954042 0.3773383457 0.7224907917 0.7765642255 0.3764747950 0.7217478635 0.7830361474 0.3798930548 0.5481879135 0.5178808889 0.2034164583 0.6016768885 0.5231815862 0.2544419126 0.6024647842 0.5427586622 0.2596854968 0.6200433858 0.5473502632 0.0836203555 0.6262676260 0.5623853171 0.0836987166 0.6399065773 0.5592324166 0.0832587138 0.7413565326 0.6640246552 0.2510469082 0.8187174440 0.4748236077 0.2427184752 0.8265616690 0.4850380508 0.2453609852 0.7524092372 0.6663457686 0.2524257879 0.8342693335 0.4949639378 0.2478049228 0.7588452994 0.7526338151 0.1137495047 0.7644305062 0.6690102808 0.2538319255 0.7782257747 0.6723030865 0.2552953582 0.8026214787 0.7665640506 0.1615335154 0.8794307958 0.6238428752 0.0942659374 0.9217429668 0.5592533183 0.1912938939 0.8981101369 0.6354670944 0.0942523988 0.9265940060 0.6781193857 0.2684884302 0.9125149753 0.7262489433 0.2334562881 0.9396905288 0.6711483270 0.2630033842 0.3658526873 0.5765589715 0.0833477895 0.4803347088 0.7324425979 0.0279597082 0.4430328792 0.6659641353 0.0961068960 0.4495916488 0.6639642534 0.0952664904 0.4523356770 0.6598795054 0.0965930121 0.3894143506 0.1711520792 0.4216737696 0.3343291801 0.0835968790 0.4717569329 0.1711622148 0.1840710438 0.3885516205 0.2163975287 0.1306979234 0.4587597024 0.1403158826 0.0872438133 0.4244191019 0.9285705813 0.4500576910 0.5810534809 0.2542665754 0.1549624104 0.0768239441 0.2905354482 0.1241713638 0.1289600761 0.3212518822 0.0796906400 0.1134317088 0.3626135533 0.1664949001 0.0989909065 0.3618115716 0.1720328486 0.1001073473 0.3650572552 0.1699175223 0.1024751033 0.3680818650 0.1736261756 0.1065974880 0.3291197610 0.2036810433 0.1572360467 0.3370097387 0.2091283478 0.1616364856 0.0617463945 0.1503431835 0.5058004330 0.1851542296 0.1663343433 0.5386194663 0.1499010732 0.2658912747 0.5712995577 0.1483448435 0.2522247867 0.4787910928 0.0408593829 0.9382737773 0.1632793904 0.1579120539 0.9508841903 0.1726205461 0.1685811546 0.9468865692 0.1683304540 0.4623075518 0.4848402825 0.1661080339 0.4577480282 0.4752223146 0.1662387119 0.5258209745 0.3954496766 0.2669789783 0.8807304807 0.5610000509 0.0484155328 0.8724847639 0.5657485017 0.0455648940 0.8788721143 0.5639566043 0.0436095678 0.9528857972 0.5564837435 0.0824620402 0.0848611248 0.9509143452 0.2972595417 0.0909303334 0.9527341529 0.2984105654 0.7712012794 0.0774324467 0.2849991788 0.7320444458 0.0975390960 0.3049634968 0.7245535589 0.0995461121 0.3031239492 0.8351612537 0.1252679570 0.3223784397 0.8416794079 0.1387116683 0.3278998178 0.7707173684 0.1908854940 0.2038464897 0.7747345340 0.1947185101 0.2066769888 0.3426261814 0.1902181612 0.5344573794 0.3550214690 0.1906349672 0.5362009089 0.4139992681 0.2829445671 0.5664123899 0.9549002867 0.6061796897 0.3610204060 0.8663820307 0.6117984628 0.4001125733 0.8999167111 0.4790677239 0.3659218492 0.9022697797 0.4738060761 0.3628358758 0.8960220598 0.4718837819 0.3635564823 0.9027215905 0.3807539283 0.2926228663 0.8058062604 0.0773906796 0.5900193507 0.3432507702 0.9113997388 0.0686958496 0.3482561087 0.9041869512 0.0728548395 0.2973773799 0.8399040063 0.0897857929 0.2988438345 0.8343470337 0.0890977137 0.8006523784 0.6605801955 0.3595343513 0.6844023989 0.6155007746 0.3399599730 0.6751674734 0.6201203749 0.3384223922 0.1505749834 0.9040892146 0.4534406462 0.1568603895 0.9069181729 0.4543829185 0.1183439406 0.9135209032 0.2299885032 0.1206151785 0.9131855554 0.2376250982 0.2538578807 0.3186002497 0.1147663524 0.2556206608 0.3240386032 0.1154065551 0.2607367038 0.3190387838 0.1151259725 0.2621693188 0.3245769754 0.1156872345 0.2673288876 0.3190361903 0.1154432088 0.2631782765 0.3301131460 0.1161660438 0.2685368314 0.3247187809 0.1158617895 0.3468126358 0.2670679719 0.0577853177 0.2798050600 0.4118682985 0.0597694204 0.1971452730 0.4195476812 0.3309926817 0.3175369042 0.4047895913
[...]
      <PointData Scalars="overlap">
        <DataArray type="Float32" Name="overlap" format="ascii">
 0.0002254794 0.0000176360 0.0002059159 0.0000273108 0.0000867149 0.0000335450 0.0000068532 0.0000517911 0.0002480022 0.0002509450 0.0001092087 0.0000488379 0.0000731179 0.0004926097 0.0000273045 0.0002315092 0.0000931171 0.0000059992 0.0000061401 0.0001281540 0.0000225499 0.0000493337 0.0000312301 0.0000300684 0.0000237407 0.0000096616 0.0001206646 0.0000834850 0.0001927546 0.0001199838 0.0000301173 0.0000289370 0.0000076670 0.0000869380 0.0002831392 0.0000288262 0.0002000873 0.0000835498 0.0000471080 0.0000981858 0.0001040696 0.0001685664 0.0000240856 0.0000127335 0.0001836549 0.0000525541 0.0000014695 0.0000530607 0.0001663171 0.0000603590 0.0000792399 0.0002215553 0.0000634170 0.0000342737 0.0000158414 0.0000083709 0.0000553681 0.0002891510 0.0001526271 0.0000511815 0.0001175028 0.0000171439 0.0000946020 0.0000953271 0.0000257292 0.0003203691 0.0000195965 0.0000905953 0.0000905667 0.0000191592 0.0000292764 0.0000609115 0.0000073020 0.0000862938 0.0000184628 0.0000016170 0.0000080388 0.0000088218 0.0000385662 0.0001860971 0.0000088516 0.0000308585 0.0002620247 0.0001150058 0.0000371746 0.0001253625 0.0000099889 0.0000137021 0.0000040457 0.0000160006 0.0000165739 0.0000396949 0.0000070865 0.0000395256 0.0000271254 0.0001011888 0.0001229371 0.0000461528 0.0000056330 0.0000081017 0.0000276447 0.0000246246 0.0000823272 0.0000446368 0.0000528779 0.0000485851 0.0000602617 0.0000762269 0.0000621561 0.0000974625 0.0000384169 0.0000569064 0.0000136768 0.0001104177 0.0000157516 0.0000254505 0.0001251932 0.0001384952 0.0001235396 0.0000801095 0.0001384697 0.0000158635 0.0000304224 0.0000370158 0.0000326756 0.0000591696 0.0000283813 0.0000085897 0.0000406329 0.0001086380 0.0000463997 0.0000186709 0.0000024402 0.0000397185 0.0000015878 0.0000123499 0.0000049161 0.0000335486 0.0000388821 0.0000606456 0.0000185452 0.0000169333 0.0000081366 0.0000066923 0.0000121287 0.0000222251 0.0000203722 0.0000126830 0.0000104832 0.0000260259 0.0000088045 0.0001701443 0.0000142198 0.0000455945 0.0000110202 0.0000460500 0.0001709166 0.0000240487 0.0001045753 0.0002023732 0.0000361682 0.0000389307 0.0001534249 0.0000031801 0.0000396875 0.0002879778 0.0000076457 0.0000182095 0.0000145172 0.0000432803 0.0000043863 0.0000131850 0.0000080968 0.0000748649 0.0000376720 0.0000596765 0.0000612678 0.0000358375 0.0000604991 0.0000171718 0.0000351053 0.0000001340 0.0000569558 0.0000125639 0.0000174553 0.0000518163 0.0000189925 0.0000528153 0.0000300967 0.0000299944 0.0000204692 0.0000079156 0.0000286505 0.0000113280 0.0000229169 0.0000146906 0.0000044691 0.0000260167 0.0000156968 0.0000056624 0.0000674933 0.0000368296 0.0000021475 0.0000127100 0.0000078420 0.0000400762 0.0000105538 0.0000492640 0.0000639757 0.0000374158 0.0002482843 0.0000717458 0.0000078741 0.0000103785 0.0000072345 0.0000071151 0.0000116735 0.0000368686 0.0000339557 0.0000539164 0.0000649758 0.0000026539 0.0000081062 0.0000882936 0.0000310423 0.0000607599 0.0000853649 0.0000025321 0.0000074697 0.0000557584 0.0000901002 0.0000004488 0.0000286989 0.0000798005 0.0001171079 0.0003507876 0.0003215242 0.0000396911 0.0000255343 0.0001376454 0.0001623490 0.0000229806 0.0000388985 0.0000070034 0.0000153314 0.0000604150 0.0000176774 0.0000218431 0.0000121077 0.0000311238 0.0000745181 0.0000534942 0.0000057889 0.0000329451 0.0000231387 0.0000208302 0.0000334635 0.0000189510 0.0000233308 0.0000275236 0.0000620005 0.0000031543 0.0000057154 0.0000214561 0.0000013428 0.0000081829 0.0000690432 0.0002011639 0.0001005128 0.0000705765 0.0000617786 0.0000254615 0.0000534108 0.0000846284 0.0000196769 0.0000506607 0.0000229698 0.0001329132 0.0000053749 0.0000218452 0.0000399281 0.0000061709 0.0000000343 0.0000136452 0.0000074831 0.0000123032 0.0000692560 0.0000457791 0.0000087535 0.0000061918 0.0000204220 0.0000509052 0.0000421458 0.0000042338 0.0000223509 0.0000264714 0.0000096805 0.0000019331 0.0000134209 0.0000581469 0.0001163584 0.0000069892 0.0000207721 0.0000301159 0.0000081393 0.0000235306 0.0000218610 0.0000728971 0.0000744129 0.0000795217 0.0000089885 0.0000791236 0.0000033686 0.0000338689 0.0000163379 0.0000037599 0.0000088882 0.0000221803 0.0000323212 0.0000315104 0.0000289719 0.0000208921 0.0000060156 0.0000219003 0.0000137044 0.0000218286 0.0000040974 0.0000588432 0.0000080942 0.0000051616 0.0000113374 0.0000606988 0.0000876192 0.0000141495 0.0000074140 0.0000051314 0.0000503646 0.0000601890 0.0000343406 0.0000376599 0.0000593497 0.0000512608 0.0000147319 0.0000057927 0.0000105753 0.0000042611 0.0000067562 0.0000083602 0.0000097935 0.0000055312 0.0000459176 0.0000166888 0.0000076985 0.0000327388 0.0000234169 0.0000008355 0.0000054705 0.0000595226 0.0000461677 0.0000196804 0.0000226467 0.0000418970 0.0000146871 0.0000080143 0.0000069262 0.0000338059 0.0000269844 0.0000105030 0.0000220849 0.0000404880 0.0000195147 0.0000139452 0.0000139032 0.0000066586 0.0000151861 0.0000079954 0.0000101347 0.0000157985 0.0000150107 0.0000045888 0.0000050009 0.0000516693 0.0000116138 0.0000607786 0.0000296376 0.0000319225 0.0000086597 0.0000188351 0.0000046865 0.0000027900 0.0000038195 0.0000651952 0.0000062439 0.0000314070 0.0000108740 0.0000235263 0.0000129940 0.0000245502 0.0001357921
        </DataArray>
        <DataArray type="Float32" Name="contact normal" NumberOfComponents="3" format="ascii">
 0.9747532524 -0.1893265213 -0.1183704574 0.1555832944 0.9312620206 0.3294615114 -0.0006369127 0.6164493372 -0.7873943161 -0.2103094044 0.7157904922 -0.6658933291 0.1103529004 -0.0480213715 -0.9927316784 0.2338304143 -0.1107042686 -0.9659543997 0.5992129351 -0.7720005489 -0.2120354003 -0.3785367446 0.6351391998 -0.6732816126 -0.3288794050 0.6782702266 -0.6571056510 -0.1641729259 -0.9501185078 -0.2651830907 -0.8558114979 0.4668465217 0.2228026151 -0.1400012626 -0.4491020416 0.8824437674 -0.1479971131 -0.4748770765 0.8675186549 -0.1169561276 -0.3830500393 0.9162935837 -0.0083273688 0.0626903460 -0.9979982843 0.0267981261 -0.0943864192 -0.9951748913 -0.8319797759 -0.0603912928 0.5515093329 -0.4683989765 0.3948371007 -0.7903834909 -0.3784766087 -0.4904458522 -0.7849957469 0.4266948174 -0.1496602089 0.8919267653 0.4063685898 -0.1798398580 0.8958360311 -0.6620613986 -0.1481317553 -0.7346643367 0.5876511421 -0.7239462468 0.3613418974 -0.6340750097 -0.2069739744 -0.7450574850 -0.0676208410 -0.3232599500 -0.9438911095 -0.7624901925 0.1937288147 -0.6173150353 0.3124967727 -0.0294148310 0.9494632877 -0.7342314577 -0.5295637892 0.4248133234 -0.7988465902 -0.6011027212 0.0227956996 -0.0013722949 -0.9554457164 0.2951636830 0.3770192297 0.7929074888 0.4787005479 0.3335802822 -0.6196449322 -0.7104677004 0.7209785424 0.5217156266 -0.4560731810 0.7537166120 0.4852935990 -0.4431719661 0.2852179991 0.6836306964 -0.6717884816 -0.4732858299 -0.4351833625 -0.7659085874 0.2186436117 -0.1884137688 -0.9574420206 -0.6235796091 0.7261400298 -0.2896016717 -0.5201710810 0.6631023981 0.5382538956 -0.1222958108 -0.0632399255 -0.9904768783 -0.3277457020 0.7301528184 0.5995495114 -0.7229381327 0.6861788497 0.0807405885 0.4062221722 -0.7683133973 -0.4946494419 0.4402995664 -0.7260696610 -0.5281658255 0.1714048594 0.2531764217 0.9521145276 -0.4363235895 -0.6609567202 0.6105390563 -0.9456347578 -0.3248600198 -0.0155200624 0.6139360743 -0.7892950523 0.0097886212 0.5989282225 -0.8008025388 0.0005273070 0.5472237419 0.8316348776 0.0944965956 0.4998137041 0.7781907231 -0.3802702456 0.0644272515 -0.3623451602 0.9298145590 0.7572552316 -0.0105200933 0.6530343344 0.1054392899 0.2946141619 0.9497815811 -0.1808931369 0.8143173729 -0.5515114588 -0.1033738240 0.6607681017 -0.7434375349 -0.0956931644 0.2005365960 -0.9750014830 -0.2508185508 0.5934756007 0.7647723622 0.4793130827 -0.4879071494 -0.7295242164 0.2611728317 -0.8734909092 0.4108556724 -0.4050152564 0.2950860495 -0.8653824966 -0.5610567881 0.6174382068 -0.5513486568 0.6796949868 -0.6364705617 -0.3645818825 0.1152619859 -0.2602497017 -0.9586369320 0.2785683928 -0.2555603197 -0.9257907828 -0.1151245717 -0.6947441928 0.7099836896 -0.1319881943 -0.1363963729 -0.9818223597 0.1889875133 -0.3259856442 0.9262921135 0.1771333423 -0.3355300133 0.9252261287 -0.3539239894 0.6917209084 -0.6294918543 -0.5815535010 -0.3308858148 0.7431756879 -0.6850152032 -0.6446727346 0.3393394121 -0.3519555955 0.0410010949 -0.9351182647 0.2481489421 0.1400593430 -0.9585434174 0.6234581362 0.3239966133 -0.7115659821 0.9444687908 -0.0566728087 0.3236771478 0.9482884282 0.0855581808 0.3056613399 -0.4734749958 0.6020759845 -0.6429042987 -0.5584251840 0.4656565559 0.6865313437 -0.4312482538 0.6832498261 0.5892322282 0.1343173641 0.8425357519 -0.5216247238 -0.6365609484 -0.7535041494 0.1643826505 0.0926936731 -0.3335353345 0.9381695282 0.0489932891 -0.2190279092 0.9744877796 0.3163005487 0.5395971174 -0.7802492639 0.7737816318 0.4542845219 0.4414607111 0.3336683635 0.5760534559 -0.7462089782 0.2731905282 0.6214733455 -0.7342600467 0.8864811789 0.4479891742 -0.1160035307 -0.3028403400 -0.8435987014 -0.4434286408 -0.2974543979 0.9482583267 0.1110271451 -0.3437155730 0.8246733739 0.4491919760 -0.8803492293 -0.1147576738 -0.4602346258 -0.2751891593 -0.8528886006 -0.4436800216 -0.0722184039 -0.8079363873 -0.5848275782 -0.2014316792 0.9574070979 0.2068741829 -0.5934968084 0.7299742259 0.3389677979 -0.3922068182 -0.5327761100 0.7498822763 0.3396777708 0.5385624509 -0.7710833278 0.3863041766 0.5406354272 -0.7473168124 0.3396630012 0.5385615693 -0.7710904497 0.3396590260 0.5385613319 -0.7710923666 0.1126290317 -0.4601077189 0.8806904043 0.1108360775 -0.4528112387 0.8846905368 -0.0837978028 -0.9413526272 -0.3268534220 0.7067005838 -0.6148219227 -0.3500975412 0.4599479016 -0.3548467364 -0.8139605159 -0.2235136629 0.1352076374 0.9652774406 -0.2231866644 0.1348020813 0.9654098154 -0.2230471242 0.1346294154 0.9654661573 -0.2232336697 0.1348603715 0.9653908063 -0.2225823619 0.1340527100 0.9656536455 -0.2236743483 0.1354069343 0.9652122814 -0.2227753707 0.1342923560 0.9655758372 -0.2224723900 0.1339163504 0.9656979066 -0.1802151121 0.0818555971 0.9802153715 -0.2226809197 0.1341862543 0.9656123742 -0.2226656740 0.1344194054 0.9655834615 -0.2230789742 0.1349987833 0.9654072197 0.1669318042 -0.3145195476 -0.9344577181 -0.2215248268 0.1354785735 0.9656978343 0.2534599704 -0.2169909845 -0.9426945190 0.2505251675 -0.2101697576 -0.9450215942 0.4823413748 -0.3851750129 -0.7867572736 0.7374702247 0.4353361964 0.5163526545 0.4636611526 0.3371341205 -0.8193649494 0.8230674703 -0.5670037429 -0.0326602960 0.2197696774 -0.1326079036 -0.9664969906 0.2253245810 -0.1300585998 -0.9655638735 0.2248712491 -0.1264252084 -0.9661519487 0.2037494342 -0.0979240291 -0.9741134701 0.2245760013 -0.1254524823 -0.9663473983 0.1756646553 -0.7374340274 0.6521755777 0.1958971773 0.1959945647 0.9608383977 -0.0155868368 0.4234285997 -0.9057953806 -0.0707426330 0.3607668443 -0.9299692274 -0.1004638549 0.3256039557 -0.9401537522 -0.0743318199 0.1549480379 -0.9851222696 -0.3376617733 0.8585555088 0.3858328202 0.1560657289 -0.5231819038 0.8378091571 -0.3066398293 -0.9367077964 -0.1689689893 0.9259354592 0.1042884802 -0.3629978490 0.5340510489 0.5979801349 0.5976698382 -0.6750111075 -0.6277675723 -0.3876440118 -0.9195201826 0.3290604889 -0.2149461056 0.0689807196 -0.6885757383 0.7218761063 0.0714448491 -0.6715843348 0.7374755012 0.0633490894 -0.3691966383 0.9271896975 0.4348667405 0.8794835326 -0.1933898496 -0.3196930884 -0.5168024461 -0.7941735081 0.2726974000 0.5234739934 -0.8072243221 -0.0187421814 0.0079255030 0.9997929371 -0.0187520884 0.0079557716 0.9997925109 0.0753974276 -0.0381816148 0.9964222961 0.2195141290 -0.5921873704 -0.7753242325 -0.1204673141 0.3287115975 -0.9367157049 -0.1204804975 0.3287224630 -0.9367101964 0.2194855784 -0.5919994109 -0.7754758400 -0.1204921656 0.3287320791 -0.9367053209 0.1357537325 -0.0261294599 0.9903979884 0.2192752097 -0.5917333211 -0.7757383961 0.2181248584 -0.5917943684 -0.7760160898 -0.3181017030 -0.8153441329 0.4837615647 -0.2059579332 0.1752040266 0.9627486062 -0.8647665095 0.4792034753 -0.1501429761 -0.0545679251 0.3320543045 0.9416805618 -0.6879599256 0.4288592982 -0.5854834268 -0.0387846573 -0.7615490647 -0.6469457260 0.1346576819 -0.2781308373 -0.9510575934 0.6640587297 0.3246355468 -0.6735263657 -0.2386568078 -0.2963398793 0.9247840851 -0.1922929370 -0.3520470037 -0.9160165575 -0.1771541194 -0.3510729617 -0.9194368894 -0.1801576994 -0.3565809066 -0.9167296550 -0.8774167141 0.4309638261 0.2107370171 -0.5001108089 0.4190668237 -0.7578074796 0.5889301473 -0.5446892996 -0.5970551469 0.2173493530 -0.1597576664 -0.9629313302 0.9732616084 0.2296955853 0.0013340594 -0.6193036527 0.5275695577 -0.5814923452 0.9097900719 -0.4077867724 0.0774078379 0.6530773045 0.0527552689 -0.7554514650 0.1091616268 0.9771490380 0.1823828304 -0.6847328111 -0.2364418103 0.6893738084 -0.6894328735 -0.2314111948 0.6863899562 -0.6822164770 -0.2397673305 0.6907186878 -0.6643682159 -0.2351547329 0.7094484656 0.4877532597 -0.4803146981 -0.7289681396 0.7528411359 -0.6492556060 -0.1081544371 0.0332312029 0.4261985590 0.9040190681 -0.6547031647 0.4062492916 0.6374364904 -0.0725161937 -0.4846463452 -0.8716991005 -0.5033488078 -0.6987175468 0.5083638141 0.3390237599 0.2884376704 -0.8954700444 -0.2373899129 0.0128348600 -0.9713296534 -0.2615773236 -0.0587875219 -0.9633905392 0.7522938158 0.2694440339 0.6012103853 0.1439897299 -0.6094809203 0.7796152676 -0.4401101831 0.8365799568 0.3262468430 0.2696939680 0.7976558364 0.5394537333 0.2716255437 0.8386196465 0.4721616805 0.2090920558 0.6355672894 -0.7431922583 -0.3845912865 0.7536621471 -0.5329942874 -0.2919892807 0.6684314539 0.6840626077 -0.2519035115 0.6666706888 0.7014946996 -0.1773009710 0.9573721582 0.2280414794 0.3002280814 0.5922485762 -0.7477330561 0.2806566535 0.5827407628 -0.7626565716 -0.2984562552 0.4463288601 -0.8436316805 -0.3000581567 0.4872076677 -0.8201181568 -0.1923618396 -0.5414401321 0.8184372340 -0.1957653555 -0.5312683030 0.8242753883 -0.4403007145 0.6284658752 -0.6412222115 0.0843763991 0.9896479435 0.1160929425 -0.6559091225 -0.6631200146 0.3606314868 -0.6477560992 -0.7391251801 -0.1846781096 0.6216188633 -0.6940326191 -0.3631923904 -0.4377307791 0.6553863140 -0.6155164859 -0.1216845151 0.3523794070 -0.9279125133 -0.2329795984 0.2568491049 -0.9379493825 -0.4786313953 0.7628187415 -0.4347637922 -0.1736945190 0.6566960781 0.7338804228 -0.7734322018 -0.6004146153 -0.2032361164 -0.7640857764 -0.6230798663 -0.1671658057 0.2986764689 0.2188546120 -0.9289214314 0.2974137777 0.2166317344 -0.9298471576 -0.2439410227 0.3579197348 -0.9013247144 0.3978228297 0.4542095091 -0.7971390833 0.3423567337 0.4963670339 -0.7977541191 -0.3679632540 0.7958115642 0.4809230687 -0.3649448828 0.8040906986 0.4693116032 -0.8854919153 0.3731742139 0.2768484674 -0.8869874724 0.3678073142 0.2792328839 0.0322114673 0.0956209526 -0.9948965046 0.0299115341 0.0983225828 -0.9947049662 0.0682010052 0.0531614498 -0.9962542262 0.0336780762 0.0939364707 -0.9950084053 0.0706315534 0.0502703504 -0.9962349500 0.0315076943 0.0964937975 -0.9948347663 0.0697399903 0.0513336558 -0.9962435393 -0.9735254736 0.2172942951 0.0709319500 -0.4238636687 -0.7489800144 -0.5092823660 0.4890335143 -0.6031948952 0.6300810584 0.0011449934 0.0684607524 -0.9976531533 0.1759338659 -0.2961216059 -0.9388073654 0.5084273437 -0.3526524557 -0.7855812381 0.1803344407 -0.9835925224 -0.0050238733 0.9711447676 -0.0971697454 -0.2177977985 -0.2651237220 -0.9614091396 0.0734974710 -0.2908704942 -0.5680911986 0.7698485213 0.6003623096 -0.1235826399 -0.7901217807 0.4877591991 0.4212418138 0.7646216698 -0.0679866089 -0.9155824729 -0.3963414642 -0.1218343024 0.3804222222 -0.9167526033 0.3198449134 -0.2090855904 0.9241117071 -0.6040756491 -0.0347689492 -0.7961681545 -0.2391584169 -0.6359420346 0.7337444925 -0.2315477258 -0.6370179981 0.7352507877 0.8045598375 -0.5925234023 0.0399935706 0.5654868782 -0.0073060815 0.8247249310 0.0996565973 0.7561013792 0.6468224386 -0.1534893001 0.6421906702 -0.7510207573 0.7465831104 0.1815156319 -0.6400513532 0.1414907707 -0.5278192910 -0.8374886016 -0.6001495619 -0.5560394350 -0.5750136086 -0.2655353212 0.5367683312 -0.8008562616 -0.8479759480 -0.3158365895 -0.4256571865 -0.7710761469 -0.1248566156 -0.6243816151 0.3590314954 0.2544339388 -0.8979753650 0.3518003810 0.2536804519 -0.9010453486 0.3589464617 0.2544590597 -0.8980022408 0.4646808695 -0.0593537356 0.8834867422 -0.0936932770 -0.1858394007 -0.9781029020 -0.0848733932 -0.1981195899 -0.9764963570 -0.1138947660 -0.6161840692 -0.7793235369 0.0886077552 0.1653498084 0.9822464592 0.7157388551 -0.2994297108 -0.6309197569 0.8781688388 0.0218716357 0.4778505228 0.4081993450 0.9091296190 -0.0828047742 0.9197904975 -0.1472283658 -0.3637433836 0.4277882202 0.5480300144 -0.7187908890 0.4394535750 0.5374448801 -0.7197454802 0.4455997641 0.4935940612 -0.7468639454 -0.0485449886 -0.6506541047 0.7578209684 -0.0481432525 -0.6506588466 0.7578425250 -0.0497857369 -0.6508243043 0.7575942881 -0.0495878158 -0.6508278253 0.7576042439 -0.0496800061 -0.6508527136 0.7575768226 0.3639451620 -0.0156449344 -0.9312889751 0.9432759922 0.2503101124 -0.2181175148 -0.4285952465 0.5268676439 0.7339731606 -0.4289862748 0.5264420015 0.7340501312 -0.4345495830 0.5250386494 0.7317793906 -0.7262367934 0.3025553159 0.6172846999 -0.0362843572 0.2405673388 -0.9699540200 0.0041074696 0.2892672574 -0.9572395638 0.0163302590 0.3096359377 -0.9507149461 0.2013666561 0.3973575655 -0.8952979587 0.1078063975 0.8494491465 -0.5165403452 -0.3693034247 -0.1432350603 -0.9182040612 -0.2700022662 0.0784262246 -0.9596604105 -0.3530753458 -0.2886797697 0.8899448246 -0.3215969848 -0.9253117431 -0.2009317234 0.2932603871 -0.5837386436 -0.7571311256 -0.0298841437 -0.6451798484 -0.7634460696 0.2668528689 0.3719872933 -0.8890528668 0.3191386193 0.1144383909 -0.9407732970 -0.3964473561 0.0135209903 -0.9179578839 -0.3971967760 0.0123131215 -0.9176508640 -0.3732413925 0.0502424404 -0.9263727976 -0.3734589668 0.0499509884 -0.9263008684 0.1842659490 -0.3894699573 0.9024185351 -0.2694064428 0.0358330771 -0.9623596829 -0.2120248778 0.0192417747 -0.9770748207 -0.0860877200 -0.1622189154 0.9829923336 0.6306738155 -0.6959815846 -0.3433076933 0.6344022774 -0.6933259578 -0.3418082309 -0.2452319743 0.8945719920 -0.3736338179 -0.4035462482 0.9127993324 0.0628315560 -0.5502974955 -0.7400357448 0.3866778541 0.1735299420 0.3615611511 -0.9160572543 0.1744375120 0.3463873055 -0.9217306488 0.3688251715 -0.7351869671 -0.5687425747 -0.4895774505 -0.5444948735 -0.6810574518 0.0874892880 0.4826704294 0.8714211847 0.0729884754 0.4577538851 0.8860779103 0.2545601478 0.7718961457 -0.5825594145 0.2177783557 0.8018590081 -0.5564123641 -0.1614403242 -0.9838680500 0.0770758190 -0.0928252647 0.9011142500 0.4235287224 -0.4452195253 -0.8639969904 -0.2351356521 0.7007711651 -0.1018148796 0.7060832136 0.7780975891 -0.0149371596 0.6279657818 -0.1273375829 -0.6337159543 0.7630132563 -0.1228251607 -0.6298725472 0.7669253902 -0.1273062916 -0.6337409645 0.7629977051 -0.1227949111 -0.6299718858 0.7668486376 -0.1228518956 -0.6300197594 0.7668001790 -0.0929507941 -0.6040509584 0.7915065316 -0.1219497263 -0.6310524327 0.7660947013 -0.0934929140 -0.6037173619 0.7916971782 -0.0933714607 -0.6036218659 0.7917843225 -0.0310426862 0.6017010234 0.7981179299 0.5127381747 0.8092167092 -0.2868237818 0.9208304428 0.2509969199 0.2984490607 -0.0789087653 0.2649577198 -0.9610259172 -0.0744750612 0.2682215787 -0.9604741798 -0.0701515981 0.2713309920 -0.9599261670 0.3275059680 0.4936282776 -0.8056494054 0.6858622336 0.7189753289 0.1125498691 -0.1523923092 -0.6449749600 0.7488550495 -0.1524404455 -0.6449529374 0.7488642194 -0.1524539083 -0.6449505940 0.7488634970 -0.1524058059 -0.6449561119 0.7488685359 -0.1524364411 -0.6449526057 0.7488653202 -0.1524564109 -0.6449502842 0.7488632543 -0.1524531599 -0.6449506586 0.7488635937 -0.1523866491 -0.6449583178 0.7488705345 -0.1524016811 -0.6449565868 0.7488689663 0.0626500368 0.755243290