<?xml version="1.0"?>
<VTKFile type="UnstructuredGrid" version="0.1" byte_order="LittleEndian">
  <UnstructuredGrid>
    <FieldData>
      <DataArray type="Float32" Name="TIME"  NumberOfTuples="1" format="ascii"> 5.7500000000 </DataArray>
      <DataArray type="Int32"   Name="STEP"  NumberOfTuples="1" format="ascii"> 575000 </DataArray>
    </FieldData>
    <Piece NumberOfPoints="399" NumberOfCells="399">
      <Points>
        <DataArray type="Float32" NumberOfComponents="3" format="ascii">
 0.4248653227 0.2068254538 0.0759430361 0.5299832593 0.1286327865 0.0400907788 0.5050733985 0.1472907184 0.1825917664 0.6403307835 0.1082663499 0.1124597303 0.5396124607 0.3646967043 0.2040008109 0.5528625656 0.3591024969 0.2072267692 0.5678908565 0.4472844318 0.1939271073 0.7522015487 0.1787391581 0.1457377754 0.7585133259 0.1855916721 0.1501548287 0.6781371004 0.4551490733 0.1694661241 0.8496088731 0.2321593567 0.1150671804 0.7816290856 0.3733979052 0.0369727052 0.7953317234 0.3703149332 0.0373492351 0.8168259538 0.3857437137 0.0431750184 0.8042876004 0.3963507136 0.2240357151 0.8177014203 0.3880444272 0.2261941830 0.8970056704 0.3686630794 0.1723159368 0.7489580086 0.3245512751 0.6726904522 0.7715940379 0.2992915629 0.6582649237 0.7860265528 0.3638991586 0.5621530341 0.8677399431 0.6052372430 0.5111381959 0.9118156286 0.5556475171 0.5587199431 0.8933346836 0.6065764212 0.4947005694 0.9262233726 0.5446448018 0.5458337603 0.9417329104 0.3093606514 0.5254681106 0.9349242088 0.3343190384 0.5344047114 0.9466582997 0.4740601139 0.4508199490 0.2426831829 0.7997985954 0.0414070335 0.2550043394 0.8173395403 0.0914574778 0.0745409296 0.9091237437 0.1097905463 0.1543237478 0.7223196908 0.0815085894 0.0388483289 0.8885768499 0.1662307128 0.0554834682 0.8047840187 0.1553463489 0.0622456119 0.7985059213 0.1588806281 0.1716659617 0.7198412646 0.1453823639 0.1846705399 0.8263779158 0.1958310210 0.5696632779 0.7614165270 0.2455276246 0.6836964856 0.7584635951 0.2617672126 0.6518276736 0.7389199533 0.1620809618 0.7064506175 0.8129150444 0.2796415192 0.6573958836 0.7424564806 0.1621262290 0.6559155949 0.7439888588 0.1560629795 0.6050551632 0.8504652697 0.2446686565 0.6094920408 0.8548464006 0.2417821311 0.5207966361 0.7623145447 0.0984627373 0.7326514117 0.8581097165 0.2193667829 0.7273903702 0.8568457594 0.2066721470 0.5647769604 0.8549312044 0.1613298674 0.5655446157 0.8555399158 0.1539491909 0.1730877247 0.4807040788 0.3236711197 0.1676974638 0.4846861048 0.4415933380 0.1372092245 0.6603891335 0.2434473445 0.0843619474 0.6890417659 0.2636712971 0.1610016227 0.6613729503 0.2414230591 0.2576846348 0.4522146543 0.3447872122 0.2908205636 0.4616813562 0.4187224621 0.2909882561 0.5655096693 0.4523293863 0.3086335129 0.4589965247 0.2813327112 0.1182084410 0.7733040375 0.4080897867 0.2713209213 0.7854265012 0.2555511456 0.4240756945 0.5343446628 0.4164826806 0.4308564441 0.5455606509 0.4205673362 0.2460005196 0.8876088862 0.3715553094 0.3711230410 0.8402722206 0.4486937098 0.3884538612 0.8571714146 0.4473816364 0.4440473706 0.9114116607 0.2749314745 0.5616926152 0.7792380961 0.4616576071 0.7554642897 0.3393620254 0.5253684163 0.7491433730 0.3251162685 0.5221872685 0.7310383218 0.1923234471 0.5211114801 0.6605265193 0.0750018637 0.2089066708 0.6490922007 0.1078240759 0.2421729320 0.6082328284 0.1071850811 0.3161806143 0.5368085932 0.0942202538 0.3297718446 0.6497673944 0.8867018329 0.4452708862 0.6558288931 0.9007448996 0.3525089669 0.6572082877 0.9097055441 0.3464138841 0.7437355213 0.9446355193 0.5283423393 0.6975297779 0.9102990639 0.3310050904 0.7118971137 0.2412328090 0.2823342250 0.6923346123 0.1618254446 0.4376721569 0.7639626730 0.3793135947 0.3440301526 0.7707361465 0.3872258829 0.3523740352 0.5690856877 0.3189436325 0.3113895263 0.5335520395 0.2357775262 0.4478720099 0.4819231353 0.2672513431 0.3471247087 0.4709353463 0.3273644071 0.5039594941 0.4582442761 0.3355683187 0.5055512072 0.3861283373 0.4139791430 0.4441336992 0.5795578625 0.5972597249 0.5628803106 0.1272838440 0.2954925642 0.0794083837 0.1210210640 0.2920260214 0.0845420516 0.1781399645 0.3772363691 0.0528339638 0.1491834720 0.4388047271 0.0568121293 0.0950508758 0.4146557594 0.1045547677 0.2077566460 0.4386275333 0.0527657167 0.1964205908 0.4344286549 0.0567131099 0.2718641412 0.5419339086 0.0599526269 0.1116347800 0.4730198528 0.1348034501 0.1123435891 0.4827926791 0.1420338042 0.1047359747 0.4920114567 0.1450389109 0.0995438487 0.5073284221 0.1534459079 0.1196633001 0.6091646565 0.0768633838 0.1243072580 0.6141217438 0.0785441113 0.0731065465 0.6660887726 0.2039460333 0.0764847638 0.6738819860 0.1942225154 0.1368993975 0.3952855556 0.2410307457 0.2422136850 0.3041292516 0.2229847186 0.2365970611 0.2958152872 0.2228489103 0.2487073161 0.3044901033 0.2244122705 0.2293360061 0.2902094474 0.2219685300 0.2433836566 0.2948295678 0.2245377315 0.2197449620 0.2869284930 0.2202324964 0.2548636932 0.3066657385 0.2255150167 0.2368438896 0.2880814281 0.2239874104 0.2496217995 0.2953276529 0.2258879945 0.2609604279 0.3107898301 0.2263363290 0.2673071000 0.3172673227 0.2268949363 0.2743130097 0.3269068321 0.2271858493 0.0603284216 0.3238589690 0.2405526797 0.2818536640 0.3248943363 0.2291697549 0.2734197904 0.3270488524 0.3139749456 0.2819441644 0.3344277776 0.3145360183 0.0744065979 0.2508623044 0.2704874273 0.0724372420 0.1488438941 0.2300769405 0.1130173655 0.0685980451 0.2994125591 0.1289115631 0.0610857015 0.3107431368 0.2422540372 0.1318700665 0.3407273677 0.2508585590 0.1370574452 0.3419973117 0.2667443960 0.1556162379 0.3433602826 0.2741735123 0.1652456703 0.3438921914 0.2824446357 0.1696901781 0.3451598787 0.8679172550 0.1866464624 0.4388066917 0.8336796185 0.1057843235 0.4125786919 0.7587808849 0.1533921404 0.5977289985 0.7548262851 0.1422553730 0.5935159062 0.7470115836 0.1331160633 0.5912826906 0.2973200147 0.2801236467 0.5031617077 0.2898212081 0.2700269908 0.4140876638 0.2535000972 0.3450426038 0.3698639203 0.3102820643 0.3803418215 0.4286203811 0.6312886104 0.7388036938 0.5144374840 0.6934338383 0.6467633001 0.3835483380 0.7179964544 0.8411238703 0.5228715415 0.7601125211 0.7119198697 0.4431577165 0.7150687390 0.7763956196 0.3773374756 0.7224926411 0.7765644930 0.3764740245 0.7217496432 0.7830364307 0.3798922374 0.5481884786 0.5178813425 0.2034166409 0.6016773999 0.5231820805 0.2544422074 0.6024652848 0.5427591451 0.2596857500 0.6200441818 0.5473507377 0.0836205329 0.6262684263 0.5623857898 0.0836989062 0.6399073680 0.5592328901 0.0832589490 0.7413570861 0.6640250676 0.2510473828 0.8187179485 0.4748240243 0.2427190957 0.8265621711 0.4850384672 0.2453616128 0.7524097854 0.6663461877 0.2524262941 0.8342698335 0.4949643542 0.2478055576 0.7588461081 0.7526342490 0.1137500768 0.7644310487 0.6690107074 0.2538324662 0.7782263110 0.6723035218 0.2552959389 0.8026221837 0.7665644180 0.1615341610 0.8794316342 0.6238432422 0.0942664827 0.9217434611 0.5592537722 0.1912946776 0.8981109506 0.6354674169 0.0942529556 0.9265945435 0.6781197568 0.2684892624 0.9125155732 0.7262494342 0.2334571709 0.9396910504 0.6711487173 0.2630042617 0.3658526132 0.5765587471 0.0833474213 0.4803352159 0.7324424172 0.0279604541 0.4430330433 0.6659637778 0.0961072692 0.4495918025 0.6639638720 0.0952668409 0.4523358136 0.6598791049 0.0965933334 0.3894151095 0.1711526648 0.4216738788 0.3343307210 0.0835968406 0.4717569394 0.1711629135 0.1840698438 0.3885514572 0.2163986233 0.1306969640 0.4587594529 0.1403171630 0.0872422127 0.4244187127 0.9285703075 0.4500575226 0.5810546785 0.2542664434 0.1549639914 0.0768236153 0.2905345631 0.1241730058 0.1289602780 0.3212502476 0.0796915779 0.1134326738 0.3626135356 0.1664948601 0.0989908481 0.3618115815 0.1720328153 0.1001072778 0.3650572482 0.1699174721 0.1024750454 0.3680818758 0.1736261161 0.1065974274 0.3291201892 0.2036823390 0.1572353143 0.3370102856 0.2091295320 0.1616357566 0.0617468416 0.1503416514 0.5057996743 0.1851545879 0.1663331903 0.5386188428 0.1499010543 0.2658899483 0.5712992000 0.1483449940 0.2522237092 0.4787905806 0.0408595192 0.9382736851 0.1632800195 0.1579122695 0.9508840186 0.1726202617 0.1685813476 0.9468864124 0.1683301212 0.4623076438 0.4848414249 0.1661079820 0.4577480545 0.4752235210 0.1662386854 0.5258201853 0.3954505049 0.2669792114 0.8807307031 0.5610008236 0.0484159638 0.8724850228 0.5657493236 0.0455653015 0.8788723692 0.5639573990 0.0436099471 0.9528859920 0.5564839564 0.0824625155 0.0848629869 0.9509149408 0.2972594106 0.0909321758 0.9527347749 0.2984104511 0.1709236235 0.9291518183 0.3642661033 0.7712013317 0.0774326035 0.2849990265 0.7320445392 0.0975391784 0.3049635051 0.7245536483 0.0995462047 0.3031239784 0.8351613567 0.1252679396 0.3223784874 0.8416795125 0.1387116224 0.3278999296 0.7707172012 0.1908862135 0.2038469877 0.7747343728 0.1947192182 0.2066774940 0.3426293499 0.1902176751 0.5344585594 0.3550246013 0.1906345800 0.5362023377 0.4140011042 0.2829445405 0.5664150023 0.9549021186 0.6061793721 0.3610205828 0.8663839898 0.6117987724 0.4001128694 0.8999177691 0.4790676608 0.3659224164 0.9022707273 0.4738060769 0.3628364369 0.8960229951 0.4718838522 0.3635570033 0.9027218122 0.3807538095 0.2926234851 0.8058026228 0.0773930630 0.5900186795 0.3432516147 0.9113998038 0.0686959338 0.3482569513 0.9041870187 0.0728549333 0.2973776643 0.8399044233 0.0897858146 0.2988440788 0.8343474421 0.0890977217 0.8006527121 0.6605805221 0.3595348912 0.6844028972 0.6155009915 0.3399599641 0.6751679480 0.6201205568 0.3384224100 0.1505758075 0.9040900181 0.4534405552 0.1568611783 0.9069189937 0.4543829597 0.1183444653 0.9135207635 0.2299883164 0.1206157495 0.9131854673 0.2376248998 0.2538573812 0.3186008983 0.1147667449 0.2556201670 0.3240392513 0.1154069361 0.2607362031 0.3190394348 0.1151263230 0.2621688259 0.3245776221 0.1156875815 0.2673283892 0.3190368377 0.1154435243 0.2631777893 0.3301137908 0.1161663832 0.2685363369 0.3247194284 0.1158620990 0.3468119603 0.2670683311 0.0577854683 0.2798044453 0.4118687617 0.0597692885 0.1971448604 0.4195476261
[...]
      <PointData Scalars="overlap">
        <DataArray type="Float32" Name="overlap" format="ascii">
 0.0002253645 0.0000174980 0.0002057687 0.0000271834 0.0000865492 0.0000331674 0.0000067820 0.0000516612 0.0002478562 0.0002507235 0.0001090958 0.0000485073 0.0000727997 0.0004922132 0.0000268929 0.0002310912 0.0000930653 0.0000060978 0.0000060772 0.0001283326 0.0000224895 0.0000489513 0.0000314856 0.0000306509 0.0000236013 0.0000097655 0.0001206164 0.0000833610 0.0001926316 0.0001201833 0.0000299246 0.0000288204 0.0000077340 0.0000869424 0.0002829180 0.0000289941 0.0001989560 0.0000834317 0.0000473387 0.0000985349 0.0001043653 0.0001688400 0.0000243251 0.0000128402 0.0001827823 0.0000523119 0.0000013889 0.0000530569 0.0001661831 0.0000600495 0.0000789645 0.0002213534 0.0000634993 0.0000339911 0.0000157565 0.0000085562 0.0000550772 0.0002887683 0.0001531067 0.0000508474 0.0001169156 0.0000164297 0.0000950508 0.0000951728 0.0000263818 0.0003201112 0.0000192718 0.0000905817 0.0000911431 0.0000192278 0.0000291654 0.0000605800 0.0000071643 0.0000864994 0.0000181332 0.0000016343 0.0000080467 0.0000089141 0.0000386367 0.0001856029 0.0000087451 0.0000307643 0.0002617010 0.0001144933 0.0000377142 0.0001251124 0.0000100447 0.0000136954 0.0000040740 0.0000156944 0.0000165745 0.0000396628 0.0000069682 0.0000394553 0.0000273009 0.0001010560 0.0001228017 0.0000460786 0.0000055977 0.0000080722 0.0000275220 0.0000244357 0.0000819409 0.0000442260 0.0000530238 0.0000486498 0.0000602920 0.0000762123 0.0000621968 0.0000973959 0.0000385223 0.0000568947 0.0000138609 0.0001102990 0.0000158012 0.0000253877 0.0001250203 0.0001382635 0.0001232409 0.0000799728 0.0001381097 0.0000156215 0.0000301865 0.0000371747 0.0000324000 0.0000591906 0.0000283085 0.0000085560 0.0000406105 0.0001086531 0.0000464306 0.0000187150 0.0000024033 0.0000395519 0.0000015818 0.0000123689 0.0000048931 0.0000334262 0.0000390886 0.0000604745 0.0000185423 0.0000167080 0.0000083170 0.0000068131 0.0000119912 0.0000224055 0.0000203544 0.0000127131 0.0000103966 0.0000259497 0.0000088372 0.0001699065 0.0000139845 0.0000454040 0.0000110976 0.0000460668 0.0001709471 0.0000240928 0.0001046191 0.0002024447 0.0000361756 0.0000388951 0.0001535583 0.0000027843 0.0000399690 0.0002875304 0.0000075934 0.0000179380 0.0000144359 0.0000430534 0.0000044982 0.0000129165 0.0000079098 0.0000747215 0.0000377559 0.0000593684 0.0000611463 0.0000359139 0.0000600419 0.0000173233 0.0000351414 0.0000002090 0.0000570654 0.0000125180 0.0000176023 0.0000518762 0.0000191484 0.0000529658 0.0000302990 0.0000299956 0.0000204880 0.0000077639 0.0000284327 0.0000114006 0.0000228619 0.0000145189 0.0000043995 0.0000259771 0.0000157559 0.0000056871 0.0000674873 0.0000369258 0.0000020473 0.0000128744 0.0000077104 0.0000005130 0.0000400089 0.0000106808 0.0000494047 0.0000639121 0.0000373631 0.0002481576 0.0000716006 0.0000078756 0.0000104031 0.0000073732 0.0000071111 0.0000117602 0.0000364861 0.0000337236 0.0000537997 0.0000648299 0.0000026840 0.0000081337 0.0000881750 0.0000310330 0.0000607726 0.0000854276 0.0000026315 0.0000074583 0.0000562320 0.0000902945 0.0000005692 0.0000289060 0.0000796113 0.0001168864 0.0003506286 0.0003213191 0.0000395539 0.0000252937 0.0001374674 0.0001622149 0.0000228866 0.0000387122 0.0000069532 0.0000152629 0.0000603101 0.0000175986 0.0000222162 0.0000122532 0.0000312565 0.0000744952 0.0000535142 0.0000057886 0.0000332607 0.0000231264 0.0000207018 0.0000334278 0.0000189517 0.0000231159 0.0000277060 0.0000619055 0.0000030587 0.0000056473 0.0000215850 0.0000015943 0.0000080268 0.0000689849 0.0002010049 0.0001003105 0.0000704709 0.0000618285 0.0000254292 0.0000530361 0.0000844540 0.0000197690 0.0000510219 0.0000227727 0.0001328853 0.0000052449 0.0000218382 0.0000399213 0.0000060795 0.0000132369 0.0000072396 0.0000121313 0.0000693222 0.0000461873 0.0000084984 0.0000061701 0.0000201847 0.0000510263 0.0000426498 0.0000046953 0.0000223191 0.0000264299 0.0000096207 0.0000018485 0.0000133816 0.0000581695 0.0001162619 0.0000070473 0.0000208247 0.0000300545 0.0000081931 0.0000234078 0.0000218269 0.0000727645 0.0000745935 0.0000794286 0.0000091839 0.0000792730 0.0000033449 0.0000340208 0.0000164939 0.0000032797 0.0000092094 0.0000222818 0.0000323758 0.0000314883 0.0000290373 0.0000209670 0.0000060460 0.0000220154 0.0000136437 0.0000218611 0.0000040452 0.0000588404 0.0000080972 0.0000052578 0.0000114426 0.0000607639 0.0000874454 0.0000141903 0.0000075877 0.0000050957 0.0000504583 0.0000602045 0.0000344804 0.0000375985 0.0000594144 0.0000512520 0.0000145775 0.0000059711 0.0000103552 0.0000045035 0.0000063595 0.0000087104 0.0000097998 0.0000055111 0.0000459220 0.0000166784 0.0000076758 0.0000326298 0.0000233831 0.0000007450 0.0000053940 0.0000594782 0.0000461027 0.0000198211 0.0000226473 0.0000419168 0.0000146558 0.0000079322 0.0000069623 0.0000336134 0.0000269956 0.0000106169 0.0000221514 0.0000403880 0.0000195116 0.0000137872 0.0000140121 0.0000066104 0.0000152036 0.0000080281 0.0000100661 0.0000156164 0.0000151165 0.0000045957 0.0000049278 0.0000517349 0.0000115900 0.0000605772 0.0000295746 0.0000316020 0.0000093036 0.0000185436 0.0000045210 0.0000027814 0.0000039510 0.0000650145 0.0000060326 0.0000313370 0.0000110775 0.0000235918 0.0000132248 0.0000245346 0.0001356413
        </DataArray>
        <DataArray type="Float32" Name="contact normal" NumberOfComponents="3" format="ascii">
 0.9747551887 -0.1893152670 -0.1183725129 0.1555771399 0.9312609200 0.3294675286 -0.0006373589 0.6164446774 -0.7873979639 -0.2103073870 0.7157941400 -0.6658900450 0.1103621976 -0.0480295921 -0.9927302472 0.2338401110 -0.1107107994 -0.9659513038 0.5992074017 -0.7720057051 -0.2120322642 -0.3785347934 0.6351393456 -0.6732825721 -0.3288774734 0.6782702769 -0.6571065659 -0.1641725234 -0.9501201353 -0.2651775086 -0.8558113519 0.4668476062 0.2228009034 -0.1400029816 -0.4491051709 0.8824419021 -0.1479989749 -0.4748805648 0.8675164278 -0.1169575443 -0.3830524582 0.9162923917 -0.0083251410 0.0626815538 -0.9979988551 0.0267987380 -0.0943958026 -0.9951739848 -0.8319751487 -0.0603934050 0.5515160820 -0.4684032310 0.3948239139 -0.7903875570 -0.3784747140 -0.4904609691 -0.7849872156 0.4266518912 -0.1496849711 0.8919431446 0.4063600297 -0.1798452389 0.8958388339 -0.6620745837 -0.1481337869 -0.7346520447 0.5876616927 -0.7239384194 0.3613404209 -0.6340889231 -0.2069766186 -0.7450449093 -0.0676103406 -0.3232760795 -0.9438863376 -0.7624908148 0.1937189435 -0.6173173643 0.3124838173 -0.0294254480 0.9494672227 -0.7342364281 -0.5295587973 0.4248109555 -0.7988541018 -0.6010931014 0.0227861260 -0.0013700716 -0.9554466016 0.2951608279 0.3770209806 0.7929121431 0.4786914595 0.3335697906 -0.6196503679 -0.7104678855 0.7209801925 0.5217115117 -0.4560752795 0.7537178081 0.4852896434 -0.4431742635 0.2852094011 0.6836268227 -0.6717960738 -0.4732841849 -0.4351851006 -0.7659086163 0.2186606791 -0.1884327566 -0.9574343861 -0.6235803202 0.7261394999 -0.2896014690 -0.5201697359 0.6631040208 0.5382531964 -0.1223098452 -0.0632332403 -0.9904755722 -0.3277452943 0.7301529289 0.5995495996 -0.7229386194 0.6861784268 0.0807398237 0.4062261643 -0.7683050989 -0.4946590527 0.4403013159 -0.7260613752 -0.5281757573 0.1714131105 0.2531715098 0.9521143483 -0.4363224288 -0.6609524630 0.6105444946 -0.9456344922 -0.3248609602 -0.0155165600 0.6139391426 -0.7892928027 0.0097775659 0.5989303763 -0.8008009357 0.0005154541 0.5472191647 0.8316363187 0.0945104185 0.4998118819 0.7781978843 -0.3802579856 0.0644273892 -0.3623473094 0.9298137119 0.7572562955 -0.0105254711 0.6530330141 0.1054414193 0.2946010238 0.9497854199 -0.1809007002 0.8143265389 -0.5514954439 -0.1033724760 0.6607669635 -0.7434387340 -0.0957058635 0.2005464459 -0.9749982106 -0.2508216796 0.5934687681 0.7647766382 0.4792969000 -0.4879376607 -0.7295144419 0.2611676469 -0.8734873249 0.4108665885 -0.4050249905 0.2950858430 -0.8653780113 -0.5610660372 0.6174398631 -0.5513373898 0.6796859825 -0.6364825094 -0.3645778112 0.1152697603 -0.2602714852 -0.9586300832 0.2785762328 -0.2555793328 -0.9257831750 -0.1151290042 -0.6947396600 0.7099874064 -0.1319871176 -0.1364192995 -0.9818193192 0.1889910616 -0.3259880492 0.9262905432 0.1771366745 -0.3355326220 0.9252245447 -0.3539061913 0.6917221948 -0.6295004472 -0.5815552941 -0.3308912495 0.7431718650 -0.6850133446 -0.6446788151 0.3393316122 -0.3519581407 0.0410001451 -0.9351173484 0.2481291062 0.1400635217 -0.9585479417 0.6234776735 0.3239730023 -0.7115596141 0.9444711162 -0.0566725429 0.3236704087 0.9482901172 0.0855585656 0.3056559922 -0.4734704584 0.6020920685 -0.6428925774 -0.5584137379 0.4656547911 0.6865418507 -0.4312464237 0.6832493679 0.5892340989 0.1343172453 0.8425402887 -0.5216174265 -0.6365649167 -0.7534997915 0.1643872595 0.0926928297 -0.3335347339 0.9381698250 0.0489968327 -0.2190343313 0.9744861580 0.3163064119 0.5396091785 -0.7802385458 0.7737782836 0.4542855802 0.4414654906 0.3336570048 0.5760553934 -0.7462125615 0.2731795778 0.6214744353 -0.7342631985 0.8864807960 0.4479913464 -0.1159980688 -0.3028925365 -0.8435936318 -0.4434026338 -0.2974535663 0.9482577038 0.1110346933 -0.3437137635 0.8246710719 0.4491975868 -0.8803507646 -0.1147577362 -0.4602316734 -0.2751916784 -0.8528874921 -0.4436805900 -0.0722220911 -0.8079355178 -0.5848283240 -0.2014309413 0.9574080028 0.2068707134 -0.5934952313 0.7299760737 0.3389665799 -0.3922056975 -0.5327741641 0.7498842450 0.3396658069 0.5385655613 -0.7710864256 0.3862925079 0.5406386678 -0.7473204997 0.3396510362 0.5385646796 -0.7710935478 0.3396470602 0.5385644422 -0.7710954650 0.1126253664 -0.4601038545 0.8806928919 0.1108324245 -0.4528073808 0.8846929691 -0.0838028245 -0.9413537612 -0.3268488685 0.7067003821 -0.6148230633 -0.3500959452 0.4599550244 -0.3548448728 -0.8139573034 -0.2235078633 0.1352038072 0.9652793200 -0.2231808637 0.1347982542 0.9654116908 -0.2230413202 0.1346255862 0.9654680321 -0.2232278706 0.1348565458 0.9653926817 -0.2225765557 0.1340488844 0.9656555149 -0.2236685541 0.1354031086 0.9652141607 -0.2227695636 0.1342885268 0.9655777095 -0.2224665842 0.1339125269 0.9656997743 -0.1802089690 0.0818519239 0.9802168077 -0.2226751110 0.1341824242 0.9656142459 -0.2226598670 0.1344155751 0.9655853338 -0.2230731694 0.1349949493 0.9654090971 0.1669253305 -0.3145201750 -0.9344586634 -0.2215190459 0.1354747579 0.9656996957 0.2534594643 -0.2169824456 -0.9426966205 0.2505246103 -0.2101611625 -0.9450236533 0.4823441770 -0.3851709348 -0.7867575521 0.7374708794 0.4353339120 0.5163536454 0.4636720052 0.3371317555 -0.8193597812 0.8230594318 -0.5670153189 -0.0326619004 0.2197720126 -0.1326043972 -0.9664969407 0.2253269517 -0.1300550741 -0.9655637952 0.2248736544 -0.1264217576 -0.9661518404 0.2037516372 -0.0979207814 -0.9741133358 0.2245784476 -0.1254490974 -0.9663472693 0.1756581506 -0.7374317216 0.6521799369 0.1958861523 0.1959950346 0.9608405496 -0.0155813595 0.4234313125 -0.9057942067 -0.0707367039 0.3607693377 -0.9299687111 -0.1004576912 0.3256063302 -0.9401535885 -0.0743135419 0.1549471251 -0.9851237922 -0.3376723708 0.8585542357 0.3858263785 0.1560702683 -0.5231886774 0.8378040817 -0.3066353513 -0.9367091167 -0.1689697963 0.9259041253 0.1042748970 -0.3630816665 0.5340542400 0.5979773629 0.5976697602 -0.6750340932 -0.6277341038 -0.3876581845 -0.9195354651 0.3290408288 -0.2149108217 0.0689863138 -0.6885768894 0.7218744738 0.0714512741 -0.6715863131 0.7374730771 0.0633603764 -0.3691991644 0.9271879204 0.4348769090 0.8794785886 -0.1933894675 -0.3197023467 -0.5168052825 -0.7941679353 0.2726901643 0.5234798485 -0.8072229695 -0.0187464922 0.0079264780 0.9997928485 -0.0187563963 0.0079567448 0.9997924224 0.0753935937 -0.0381796890 0.9964226600 0.2195177200 -0.5921847746 -0.7753251984 -0.1204665984 0.3287110631 -0.9367159845 -0.1204797827 0.3287219295 -0.9367104756 0.2194891704 -0.5919968195 -0.7754768016 -0.1204914517 0.3287315466 -0.9367055996 0.1357777365 -0.0261327481 0.9903946111 0.2192788055 -0.5917307328 -0.7757393540 0.2181284738 -0.5917917770 -0.7760170498 -0.3180836668 -0.8153353079 0.4837882974 -0.2059572619 0.1752071486 0.9627481817 -0.8647636866 0.4792085394 -0.1501430719 -0.0545656448 0.3320568575 0.9416797937 -0.6879647152 0.4288432252 -0.5854895719 -0.0387382059 -0.7615569340 -0.6469392457 0.1346882815 -0.2781129571 -0.9510584892 0.6640582858 0.3246312325 -0.6735288828 -0.2386546026 -0.2963246596 0.9247895311 -0.1923020254 -0.3520427677 -0.9160162775 -0.1771630276 -0.3510686759 -0.9194368094 -0.1801666636 -0.3565766895 -0.9167295336 -0.8774162821 0.4309656148 0.2107351578 -0.5001350330 0.4190762597 -0.7577862742 0.5889325712 -0.5446860192 -0.5970557487 0.2174641421 -0.1596917621 -0.9629163453 0.9732605795 0.2296998938 0.0013428139 -0.6193122559 0.5275517747 -0.5814993162 0.9097925109 -0.4077823295 0.0774025771 0.6530816537 0.0527738872 -0.7554464047 0.1091118281 0.9771316002 0.1825060134 -0.6847310735 -0.2364530953 0.6893716637 -0.6894307571 -0.2314227971 0.6863881702 -0.6822146992 -0.2397785875 0.6907165361 -0.6643661152 -0.2351664829 0.7094465380 0.4877487437 -0.4803077162 -0.7289757615 0.7528389481 -0.6492572167 -0.1081599965 0.0332301304 0.4261977669 0.9040194810 -0.6546613673 0.4064066588 0.6373791037 -0.0726496869 -0.4846378698 -0.8716926971 -0.5033501122 -0.6987146838 0.5083664576 0.3390163822 0.2884296649 -0.8954754162 -0.2373874709 0.0128335739 -0.9713302672 -0.2615760753 -0.0587906006 -0.9633906903 0.7522881133 0.2694483200 0.6012155997 0.1439972379 -0.6094738441 0.7796194128 -0.4401227383 0.8365780282 0.3262348510 0.2696940220 0.7976532771 0.5394574904 0.2716261208 0.8386185894 0.4721632261 0.2090919915 0.6355644212 -0.7431947293 -0.3845825851 0.7536671490 -0.5329934932 -0.2919768809 0.6684379320 0.6840615704 -0.2518901120 0.6666770918 0.7014934260 -0.8247842929 0.4462123857 0.3473116425 -0.1772988915 0.9573736462 0.2280368491 0.3002274820 0.5922469685 -0.7477345701 0.2806561614 0.5827392815 -0.7626578846 -0.2984443244 0.4463298628 -0.8436353708 -0.3000463174 0.4872086799 -0.8201218870 -0.1923647297 -0.5414381573 0.8184378612 -0.1957684021 -0.5312660350 0.8242761266 -0.4403245137 0.6284693840 -0.6412024298 0.0843761076 0.9896461314 0.1161086004 -0.6559065166 -0.6631170635 0.3606416527 -0.6477218177 -0.7391492422 -0.1847020430 0.6216441777 -0.6940062493 -0.3631994524 -0.4377106094 0.6553979427 -0.6155184474 -0.1216664469 0.3523864882 -0.9279121934 -0.2329633476 0.2568583476 -0.9379508878 -0.4786234741 0.7628192897 -0.4347715508 -0.1737007302 0.6567026792 0.7338730459 -0.7734250614 -0.6004224214 -0.2032402277 -0.7640783515 -0.6230878537 -0.1671699715 0.2986763165 0.2188550897 -0.9289213679 0.2974136110 0.2166322246 -0.9298470967 -0.2439382982 0.3579318340 -0.9013206471 0.3978159212 0.4542155102 -0.7971391115 0.3423497768 0.4963728635 -0.7977534774 -0.3679618991 0.7958043141 0.4809361023 -0.3649434519 0.8040836587 0.4693247774 -0.8854927719 0.3731737506 0.2768463524 -0.8869884010 0.3678065837 0.2792308962 0.0322042598 0.0956241658 -0.9948964291 0.0299043227 0.0983257763 -0.9947048674 0.0681940529 0.0531647523 -0.9962545258 0.0336708972 0.0939396662 -0.9950083466 0.0706246244 0.0502736524 -0.9962352746 0.0315005131 0.0964969725 -0.9948346858 0.0697330630 0.0513369458 -0.9962438546 -0.9735276511 0.2172843056 0.0709326656 -0.4238710770 -0.7489797787 -0.5092765469 0.4890306549 -0.6031941782 0.6300839642 0.0011452667 0.0684566535 -0.9976534343 0.1759359818 -0.2961191336 -0.9388077487 0.5084304319 -0.3526570300 -0.7855771859 0.1803345964 -0.9835924892 -0.0050247846 0.9711438312 -0.0971740275 -0.2178000630 -0.2651230936 -0.9614108365 0.0734775383 -0.2908635030 -0.5680924748 0.7698502210 0.6003652834 -0.1235733918 -0.7901209676 0.4877576192 0.4212435091 0.7646217437 -0.0680029182 -0.9155800014 -0.3963443757 -0.1219145049 0.3803918234 -0.9167545550 0.3198493835 -0.2090775393 0.9241119815 -0.6040772109 -0.0347611039 -0.7961673122 -0.2391605345 -0.6359413993 0.7337443529 -0.2315497564 -0.6370173844 0.7352506799 0.8045623960 -0.5925195366 0.0399993706 0.5654696802 -0.0073214461 0.8247365866 0.0996592519 0.7560950588 0.6468294177 -0.1534785781 0.6421888966 -0.7510244651 0.7465892218 0.1815147296 -0.6400444804 0.1414884081 -0.5278158333 -0.8374911800 -0.6001544944 -0.5560314756 -0.5750161572 -0.2655293171 0.5367711739 -0.8008563471 -0.8479732881 -0.3158350402 -0.4256636349 -0.7710799020 -0.1248552103 -0.6243772587 0.3590316811 0.2544340543 -0.8979752580 0.3518005235 0.2536806062 -0.9010452495 0.3589465943 0.2544591703 -0.8980021565 0.4646799404 -0.0593420167 0.8834880180 -0.0937011243 -0.1858342767 -0.9781031239 -0.0848812743 -0.1981145395 -0.9764966966 -0.1139157604 -0.6161851654 -0.7793196016 0.0886002241 0.1653749918 0.9822428989 0.7157445770 -0.2994588125 -0.6308994533 0.8781535123 0.0218781973 0.4778783876 0.4081617227 0.9091484252 -0.0827837489 0.9198081546 -0.1472159111 -0.3637037726 0.4277931706 0.5480248468 -0.7187918826 0.4394583244 0.5374396378 -0.7197464949 -0.0485465847 -0.6506537106 0.7578212045 -0.0481448535 -0.6506584527 0.7578427614 -0.0497873559 -0.6508239093 0.7575945210 -0.0495894441 -0.6508274303 0.7576044767 -0.0496816505 -0.6508523183 0.7575770544 0.3639477129 -0.0156282727 -0.9312882580 0.9432768362 0.2503047015 -0.2181200739 -0.4285789604 0.5268984475 0.7339605580 -0.4289699869 0.5264728126 0.7340375521 -0.4345333659 0.5250693502 0.7317669926 -0.7262264503 0.3025814417 0.6172840627 -0.0362798060 0.2405685174 -0.9699538979 0.0041117771 0.2892681679 -0.9572392702 0.0163348617 0.3096371940 -0.9507144579 0.2013689019 0.3973491952 -0.8953011686 0.1078179816 0.8494456724 -0.5165436405 -0.3693001217 -0.1432367655 -0.9182051237 -0.2699983560 0.0784230223 -0.9596617724 -0.3530756088 -0.2886947755 0.8899398525 -0.3215942937 -0.9253117337 -0.2009360736 0.2932615628 -0.5837324649 -0.7571354338 -0.0298849677 -0.6451746197 -0.7634504560 0.2668484143 0.3719976624 -0.8890498653 0.3191448722 0.1144486683 -0.9407699256 -0.3964231622 0.0135350896 -0.9179681246 -0.3971725047 0.0123274076 -0.9176611774 -0.3732161940 0.0502562925 -0.9263821984 -0.3734337044 0.0499649552 -0.9263102999 0.1842443019 -0.3894835601 0.9024170841 -0.2693669043 0.0358331968 -0.9623707461 -0.2119853065 0.0192428347 -0.9770833860 -0.0860955668 -0.1622300291 0.9829898123 0.6306219086 -0.6960600948 -0.3432438680 0.6343516485 -0.6934039493 -0.3417439818 -0.2452335047 0.8945682782 -0.3736417050 -0.4035286537 0.9128068633 0.0628351490 -0.5502996995 -0.7400330496 0.3866798757 0.1735310855 0.3615624207 -0.9160565366 0.1744386559 0.3463885733 -0.9217299559 0.3688341993 -0.7351874555 -0.5687360888 -0.4895696571 -0.5444971164 -0.6810612609 0.0874881551 0.4826740646 0.8714192849 0.0729872010 0.4577580875 0.8860758443 0.2545706863 0.7718887739 -0.5825645770 0.2177886577 0.8018521810 -0.5564181704 -0.1614295085 -0.9838714764 0.0770547317 -0.0928313944 0.9011124080 0.4235312980 -0.4452274076 -0.8639946489 -0.2351293308 0.7007694797 -0.1018092699 0.7060856952 0.7781007829 -0.0149257393 0.6279620959 -0.1273699151 -0.6337192918 0.7630050878 -0.1228574661 -0.6298759532 0.7669174183 -0.1273386720 -0.6337443411 0.7629894971 -0.1228272656 -0.6299753324 0.7668406245 -0.1228842965 -0.6300232438 0.7667921243 -0.0929832706 -0.6040551393 0.7914995262 -0.1219822063 -0.6310559519 0.7660866314 -0.0935254270 -0.6037215631 0.7916901343 -0.0934040092 -0.6036260995 0.7917772560 -0.0310408520 0.6017011282 0.7981179223 0.5127561473 0.8092034732 -0.2868289950 0.9208303705 0.2509971516 0.2984490890 -0.0789377118 0.2649852537 -0.9610159483 -0.0745040224 0.2682490944 -0.9604642492 -0.0701805514 0.2713585056 -0.9599162732 0.3275295397 0.4936491395 -0.8056270401 0.6858842380 0.7189549612 0.1125458829 -0.1523935025 -0.6449727472 0.7488567125 -0.1524416388 -0.6449507245 0.7488658823 -0.1524551016 -0.6449483812 0.7488651599 -0.1524069992 -0.6449538991 0.7488701988 -0.1524376344 -0.6449503928 0.7488669831 -0.1524576042 -0.6449480713 0.7488649172 -0.1524543532 -0.6449484458 0.7488652566 -0.1523878424 -0.6449561050 0.7488721975 -0.1524028744 -0.6449543740 0.7488706292 0.0626367746 0.755246277