<?xml version="1.0"?>
<VTKFile type="UnstructuredGrid" version="0.1" byte_order="LittleEndian">
  <UnstructuredGrid>
    <FieldData>
      <DataArray type="Float32" Name="TIME"  NumberOfTuples="1" format="ascii"> 0.5000000000 </DataArray>
      <DataArray type="Int32"   Name="STEP"  NumberOfTuples="1" format="ascii"> 50000 </DataArray>
    </FieldData>
    <Piece NumberOfPoints="326" NumberOfCells="326">
      <Points>
        <DataArray type="Float32" NumberOfComponents="3" format="ascii">
 0.5600881480 0.2287037808 -0.4393240780 0.6659116573 0.1422787970 -0.4243981732 0.6730615169 0.1558201451 -0.4092135262 0.6150912109 0.1395684484 -0.5386793086 0.6836171816 0.1516850066 -0.4264096032 0.6263657403 0.1331021448 -0.5426464786 0.7229043066 0.1160093020 -0.5744612891 0.7507976106 0.3623526902 -0.4235356651 0.7615651332 0.3557454895 -0.4311466249 0.7740390391 0.4440366840 -0.4459398019 0.8333122152 0.1759138026 -0.6274472467 0.8417273321 0.1817835639 -0.6285014876 0.8232193452 0.4542497991 -0.5405501172 0.8342417434 0.4496451939 -0.5415427655 0.8450375493 0.4446322009 -0.5433542495 0.8407479006 0.4494755630 -0.5556359445 0.8515124039 0.4442766633 -0.5578928751 0.8842705435 0.2159898541 -0.7097813471 0.8862249643 0.2282073983 -0.7154624707 0.8019833329 0.3817127647 -0.7125539116 0.8323268273 0.3915121420 -0.7329050622 0.9529990066 0.3783392807 -0.5976421991 0.9627440652 0.3691836294 -0.6062908857 1.1746122970 0.3042231198 -0.3472232055 1.1741880067 0.2993797843 -0.3555813808 1.1718810853 0.2843763451 -0.3535107325 1.2384411660 0.5546967130 -0.4473657649 1.2851151338 0.4834495046 -0.4355563717 1.2861358329 0.4931568090 -0.4545596439 1.2516628277 0.2541536764 -0.4747404757 1.2539962597 0.2670692745 -0.4834905585 1.2315745074 0.4331535353 -0.5565081616 1.2226782098 0.4164327378 -0.5406414630 0.4115782808 0.9311732858 -0.1351950027 0.4239083363 0.9322938902 -0.1378479454 0.4086858893 0.9324422625 -0.1221144874 0.4395761308 0.7535181094 -0.2098203408 0.5330452139 0.8443260506 -0.2662370573 0.5383165166 0.8356083527 -0.2707349271 0.4351625540 0.8267588303 -0.0845629672 0.4419845578 0.8201115143 -0.0872010523 0.4471685435 0.8259173985 -0.0808905512 0.8584780722 0.7435415118 -0.3946002589 0.8519448570 0.7479600361 -0.3930498365 0.8558555656 0.7547910884 -0.3927490432 0.9419307026 0.7370745822 -0.4641686877 0.8464649665 0.7332000929 -0.5111506736 0.8507629619 0.7365041646 -0.5148350084 0.8894186402 0.8388777671 -0.4186845532 0.7141003226 0.7717042465 -0.4591120246 0.9590818622 0.8389629025 -0.5226486207 0.7978928832 0.8476879619 -0.4363391156 0.7927392145 0.8490836637 -0.4416133664 0.8014315774 0.8522989277 -0.4420137498 0.7968111211 0.8538618671 -0.4476387902 0.7927648869 0.8558788109 -0.4539935059 0.5956269674 0.4787727522 -0.0710329045 0.6760716284 0.4666905169 0.0145997177 0.6846889741 0.4397915079 -0.1316640949 0.6387322035 0.4542353882 -0.1868703033 0.7797691213 0.5392010316 -0.0617863763 0.6566656081 0.4567318783 -0.1990674353 0.6563773605 0.7591136498 0.0446117784 0.7852371061 0.5362377915 -0.0701167908 0.7948286049 0.5472121359 -0.0761266322 0.7993939817 0.5435441260 -0.0837949121 0.8073570170 0.5533719126 -0.0882574873 0.8600760134 0.8122891481 -0.0989834455 0.8691462647 0.8076019059 -0.1051872040 0.8825331518 0.8236766629 -0.1174527229 1.1218390222 0.3057560148 -0.3331962976 1.1110391506 0.2933886054 -0.3274819607 1.1143755828 0.2903731041 -0.3358041702 1.1188962924 0.2874957890 -0.3458122580 1.1246153233 0.2841519876 -0.3578732057 1.1112841702 0.2750383831 -0.3451615067 1.1159833929 0.2709005060 -0.3561488053 1.0122726512 0.1421581264 -0.2280542423 0.6266630462 0.0482980802 -0.4617767133 0.9095531524 0.2217517117 -0.5008870903 1.0071457562 0.3473992962 -0.4871897294 1.0191413273 0.3537342526 -0.4856537618 1.0099672742 0.3656618821 -0.4695586159 0.8468571172 0.3015689841 -0.3829646048 0.8411622347 0.3012863383 -0.3734747461 0.7989888351 0.2495357470 -0.2894309895 0.4120727968 0.4732066965 -0.1776200514 0.4183443487 0.4993026244 -0.1579540140 0.4252261510 0.5079694121 -0.1528723022 0.4232689170 0.5170596434 -0.1447829724 0.4297008266 0.5235949828 -0.1413925886 0.4276065051 0.5313420472 -0.1343214565 0.4253965645 0.5390565046 -0.1272937990 0.4316780276 0.5441963702 -0.1249771258 0.4295607664 0.5520645361 -0.1178175986 0.4005787521 0.6414184788 -0.1958826676 0.4056378465 0.6458732300 -0.1977598134 0.4656163917 0.6829786366 -0.0709910941 0.4620992967 0.6918249293 -0.0797227240 0.5497033827 0.3140707929 -0.2005975281 0.5594148178 0.3275192789 -0.2072038334 0.5446238539 0.3061334700 -0.1971501645 0.5552717679 0.3139203932 -0.2042452511 0.5382272822 0.3010564866 -0.1928803378 0.5650821732 0.3318817356 -0.2109560109 0.5504055076 0.3046009583 -0.2009059475 0.5299089630 0.2985087949 -0.1873956902 0.5606120827 0.3156261961 -0.2077696911 0.5445950001 0.2983139722 -0.1969918074 0.5557598459 0.3046067011 -0.2044187471 0.5373892620 0.2944441326 -0.1922114393 0.5659652542 0.3193011806 -0.2113321120 0.5279809562 0.2928590000 -0.1860361166 0.5716122773 0.3253285716 -0.2151178745 0.5358542283 0.2890351743 -0.1910990051 0.5779391291 0.3344894526 -0.2193766355 0.5252254713 0.2882233804 -0.1841472210 0.4383661572 0.3400837397 -0.0567072042 0.5855426306 0.3482466648 -0.2245138890 0.5773140058 0.3212120111 -0.2188678832 0.5216170819 0.2843237408 -0.1817120508 0.5843200253 0.3318644538 -0.2235289656 0.4598099459 0.2631245890 -0.0503653621 0.4064536604 0.1926784792 -0.0741346747 0.4165726924 0.1676820667 -0.0829952094 0.5014542042 0.0672239271 -0.0727575108 1.0697134055 0.0661926050 -0.5063045749 1.1523106637 0.0881199653 -0.3196955867 0.6891091478 0.2989252272 -0.0352347308 0.6943968412 0.3009871172 -0.0374214686 0.7010391541 0.2463753500 -0.0970509055 0.7053212520 0.2461134730 -0.0974044769 0.7108033261 0.2493820935 -0.1009286329 1.0810414133 0.6864398383 -0.2520214168 1.0222315925 0.6084177310 -0.3930991760 1.1182497977 0.6632194155 -0.3950102149 1.1222905376 0.6691356469 -0.3933226216 1.1158112609 0.6666234292 -0.4008491944 1.0550287920 0.7428035744 -0.4080748600 0.7773585408 0.5131237311 -0.4197944934 0.8509752165 0.5084959669 -0.4228681056 0.8579087727 0.5274184975 -0.4188085477 0.8655508031 0.5187423728 -0.4286044096 0.7474314589 0.5856656537 -0.5448783709 0.7512745831 0.5988614257 -0.5442275262 0.7568119702 0.5829581746 -0.5571481378 0.7605202698 0.5959263220 -0.5562512867 0.7627435540 0.6086707104 -0.5536308021 0.7636151656 0.6215303979 -0.5492957846 0.7705130282 0.6049134941 -0.5645084388 0.7717632277 0.6174329669 -0.5604631860 0.7717672206 0.6303442151 -0.5548659236 0.7790456393 0.6255543118 -0.5655310206 0.9463899757 0.6388450082 -0.5043655355 0.9550018250 0.6402940895 -0.5109770495 0.9771823064 0.4423587648 -0.5871920114 0.8679460668 0.7573561735 -0.5870227688 0.9635956432 0.6417433487 -0.5175795985 0.9862533313 0.4520457323 -0.5904979483 0.8777764596 0.7687153675 -0.5849355888 0.8752975582 0.7529242153 -0.5977379966 0.9948889593 0.4614189668 -0.5937260282 0.9725077633 0.6433220002 -0.5244739796 0.8825457113 0.7496772951 -0.6087412390 1.0032511784 0.4705402073 -0.5970091170 1.0115073834 0.4794883304 -0.6004861043 0.9821522048 0.6451898420 -0.5320292731 0.9931430121 0.6475856289 -0.5407901019 1.0065657108 0.6509378062 -0.5517054807 0.9422016773 0.6166349374 -0.7276602729 1.0319279217 0.5375935238 -0.6951488209 0.9566018336 0.6272523433 -0.7404848003 1.1056000804 0.6446141446 -0.6383580134 0.6692134925 0.7675787273 -0.5377721002 0.6671805543 0.7748085124 -0.5395065129 0.6774745638 0.7683253978 -0.5443394493 0.6646064590 0.7827182112 -0.5409193487 0.6755390458 0.7751387998 -0.5458587767 0.6731247011 0.7826446121 -0.5471476067 0.6828919934 0.7749277273 -0.5512662365 0.6807994364 0.7820381291 -0.5525521734 0.7433629091 0.7155609131 -0.6152597591 0.7450181091 0.7110215450 -0.6223731177 0.7878846565 0.7696348791 -0.6522122500 0.7896798665 0.7825617540 -0.6552531448 0.7911841558 0.7707370379 -0.6658266278 0.7752424657 0.1488471342 -0.1763168330 0.7722126517 0.1365055657 -0.1709237376 0.7611802028 0.0580512308 -0.1073362831 0.6762864310 0.1119276604 -0.0287731175 0.6694553685 0.1161190228 -0.0243753199 0.4865005980 0.1086043718 -0.3474498837 0.5232867074 0.1932149874 -0.3797793047 0.5264990306 0.1905225378 -0.3805389912 0.5274230305 0.1959669135 -0.3788746941 0.5308257649 0.1932794124 -0.3796653276 0.5321227880 0.1988546244 -0.3779374491 0.5358523127 0.1961825795 -0.3787533491 0.5519440509 0.2201416595 -0.3151410313 0.6835962839 0.1452646659 0.0448832338 0.6857018450 0.4899139146 -0.3874603218 0.6813214191 0.4805865302 -0.3846730285 0.7894278075 0.3848206058 -0.3678988778 0.7874705686 0.3812880603 -0.3635823540 0.9023381926 0.5617799252 -0.7645208492 0.8952943232 0.5670968653 -0.7599604140 0.9062782540 0.5598004834 -0.7695984085 0.9318184423 0.0559140549 -0.5503889632 0.9108058391 0.0715473953 -0.5072999037 0.9213478335 0.0750191552 -0.5073190071 0.9151016309 0.0776114663 -0.5030992433 1.0087984757 0.0951936344 -0.5677155836 1.0189638054 0.1074558852 -0.5677954927 0.8907010942 0.1737710595 -0.6028395346 0.8831072291 0.1758855014 -0.5987179184 0.8961637797 0.1768716855 -0.6034917430 0.8885536238 0.1787851967 -0.5996885837 0.8938464610 0.1820030080 -0.6003778545 0.8865966895 0.1842709703 -0.5965868198 0.8917789216 0.1875536162 -0.5972120626 1.1816710309 0.5602482776 -0.5988120230 1.1350493123 0.4386181673 -0.5682185413 1.1304531724 0.4365889553 -0.5632055930 1.1292654457 0.4316049430 -0.5673557327 1.1251844535 0.4299101094 -0.5624757027 1.1716329276 0.0128523825 -0.3627510588 0.5817389496 0.9330990968 -0.3519231559 0.5873882061 0.9252725989 -0.3530885365 0.5900096000 0.9140868858 -0.3614601635 1.0808237030 0.6224352386 -0.4861091343 0.9741392490 0.5910034167 -0.4122368262 0.5474449152 0.9222070791 -0.0707100357 0.5543775300 0.9207453658 -0.0670505617 0.4191551147 0.3089833182 -0.2951127525 0.4214670137 0.3043551337 -0.3019543035 0.4678860376 0.4434236827 -0.3503526706 0.4738577152 0.4372511174 -0.3514532969 0.4663512772 0.4428779697 -0.3587131126 0.4721622173 0.4369687463 -0.3599166950 0.5809739446 0.2142003602 -0.0195476303 0.7980669614 0.0472690448 -0.2792616624 0.8827116570 0.0233814311 -0.2915481248 0.7584432057 0.9011973482 0.0065916713 0.9380280077 0.1458781467 -0.2026767695 0.8260923191 0.1634470526 -0.2095884979 1.0676747067 0.2756327711 -0.7060403698 1.0654634096 0.2806600636 -0.7039196360 0.9200373159 0.4372081343 -0.8193736026 0.9278721171 0.4531597737 -0.8158952434 1.0348575524 0.6967820170 -0.2229974298 0.7252421726 0.7716193797 -0.5422184740 0.7180785767 0.7890996592 -0.5379004795 0.9733123868 0.8091691733 -0.0649779281 0.4636143911 0.1018806744 -0.2714348519 0.4105271250 0.0915844288 -0.2933285408 0.7933767845 0.8494115929 0.0136789753 0.6072655134 0.9016258613 -0.2587620543 0.6095505612 0.9055705470 -0.2580097503 0.6040636711 0.8826508613 -0.2652775783 0.7102436942 0.9332404878 -0.3014330045 0.7190027045 0.9326368823 -0.3135523947 0.6881776691 0.9113960554 -0.3281621694 0.3399134228 0.2526101055 -0.2099034774 0.3334897974 0.2470120870 -0.2098858183 0.3973786727 0.1674489967 -0.2800973608 0.9285833695 0.9184693788 -0.6258346927 0.9317440972 0.9209516644 -0.6333122669 0.9292510734 0.9284535309 -0.6219149082 0.9326323806 0.9314952586 -0.6296264803 0.9364281254 0.9363373622 -0.6371484839 0.9344993990 0.9457258849 -0.6260540239 1.0483247074 0.8768707987 -0.5342950253 1.1925855508 0.6286996593 -0.5446004745 1.1356237565 0.3343498981 -0.5433179650 0.9326146852 0.0418333348 -0.4350533172 0.9334782590 0.0358618934 -0.4413790570 1.0235176949 0.0048651153 -0.5975031221 1.0211014916 -0.0016857267 -0.5907021904 1.0341645912 -0.0069084474 -0.5493995693 1.0329095276 -0.0031785091 -0.5400229647 1.0574417516 0.8346679138 -0.6411075073 0.9831985490 0.8573380777 -0.6388060973 0.9821699547 0.8608303693 -0.6339569625 0.4396666762 0.1537744678 -0.2529282347 0.3640044864 0.2364794830 -0.1898877896 0.3650488003 0.2242097566 -0.1919271228 0.8248422205 0.5040789062 0.0250986418 0.6702372656 0.5640717179 -0.5525372783 0.6721086352 0.5554108485 -0.5601242430 0.6804483010 0.5491810017 -0.5583246118 0.9480568842 0.1721024362 -0.7304158269 0.9376477013 0.1629765243 -0.7364238545 0.9646230748 0.1753952529 -0.7351815874 0.9304921332 0.1561823065 -0.7410861565 0.9513939434 0.1650533475 -0.7412945920 0.9255817986 0.1508999592 -0.7450184503 0.9423618629 0.1573296262 -0.7460898622 0.9223113197 0.1465909805 -0.7486061688 0.9363773742 0.1513703558 -0.7502771045 0.9203672948 0.1429034557 -0.7521299283 0.9326789576 0.1465261278 -0.7543279569 0.9196538068 0.1395856906 -0.7558503682 0.9309284027 0.1423439850 -0.7586457531 0.9202944980 0.1364217323 -0.7600909681 0.9139795671 0.1317568227 -0.7624715053 0.9311950421 0.1384564322 -0.7637290824 0.9227223710 0.1332522609 -0.7654633301 0.9180553016 0.1288163530 -0.7683989373 0.9060066818 0.0326978729 -0.3597183546 0.9601331425 0.2665600165 -0.7538644542 0.4489605799 0.6628269881 -0.2667834783 0.5940150795 0.6741145405 -0.3008319771 0.5636409640 0.5425366258 -0.3817619638 0.6524095578 0.4954179541 -0.4972624837 0.6742885383 0.4737318347 0.0453160323 0.6636147386 0.4766784026 0.0503473276 0.6543641669 0.4744537383 0.0591539510 0.3740385493 0.1114734493 -0.1801145251 0.8178772294 0.8393133082 -0.0267086721 0.8310683508 0.8497832728 -0.0340975218 0.8050175460 0.0548848264 -0.1203088997 0.7887037923 0.0365032722 -0.0620664300 0.7890857098 0.0379585274 -0.0589665058 0.4735905232 0.4177003781 -0.0429309333 0.4706722489 0.4708762410 -0.0927477614 0.4640589586 0.4690876871 -0.0900802537
        </DataArray>
      </Points>
      <Cells>
        <DataArray type="Int32" Name="connectivity" format="ascii">
 0 1 2 3 4 5 6 7 8 9 10 11 12 13 14 15 16 17 18 19 20 21 22 23 24 25 26 27 28 29 30 31 32 33 34 35 36 37 38 39 40 41 42 43 44 45 46 47 48 49 50 51 52 53 54 55 56 57 58 59 60 61 62 63 64 65 66 67 68 69 70 71 72 73 74 75 76 77 78 79 80 81 82 83 84 85 86 87 88 89 90 91 92 93 94 95 96 97 98 99 100 101 102 103 104 105 106 107 108 109 110 111 112 113 114 115 116 117 118 119 120 121 122 123 124 125 126 127 128 129 130 131 132 133 134 135 136 137 138 139 140 141 142 143 144 145 146 147 148 149 150 151 152 153 154 155 156 157 158 159 160 161 162 163 164 165 166 167 168 169 170 171 172 173 174 175 176 177 178 179 180 181 182 183 184 185 186 187 188 189 190 191 192 193 194 195 196 197 198 199 200 201 202 203 204 205 206 207 208 209 210 211 212 213 214 215 216 217 218 219 220 221 222 223 224 225 226 227 228 229 230 231 232 233 234 235 236 237 238 239 240 241 242 243 244 245 246 247 248 249 250 251 252 253 254 255 256 257 258 259 260 261 262 263 264 265 266 267 268 269 270 271 272 273 274 275 276 277 278 279 280 281 282 283 284 285 286 287 288 289 290 291 292 293 294 295 296 297 298 299 300 301 302 303 304 305 306 307 308 309 310 311 312 313 314 315 316 317 318 319 320 321 322 323 324 325
        </DataArray>
        <DataArray type="Int32" Name="offsets" format="ascii">
 1 2 3 4 5 6 7 8 9 10 11 12 13 14 15 16 17 18 19 20 21 22 23 24 25 26 27 28 29 30 31 32 33 34 35 36 37 38 39 40 41 42 43 44 45 46 47 48 49 50 51 52 53 54 55 56 57 58 59 60 61 62 63 64 65 66 67 68 69 70 71 72 73 74 75 76 77 78 79 80 81 82 83 84 85 86 87 88 89 90 91 92 93 94 95 96 97 98 99 100 101 102 103 104 105 106 107 108 109 110 111 112 113 114 115 116 117 118 119 120 121 122 123 124 125 126 127 128 129 130 131 132 133 134 135 136 137 138 139 140 141 142 143 144 145 146 147 148 149 150 151 152 153 154 155 156 157 158 159 160 161 162 163 164 165 166 167 168 169 170 171 172 173 174 175 176 177 178 179 180 181 182 183 184 185 186 187 188 189 190 191 192 193 194 195 196 197 198 199 200 201 202 203 204 205 206 207 208 209 210 211 212 213 214 215 216 217 218 219 220 221 222 223 224 225 226 227 228 229 230 231 232 233 234 235 236 237 238 239 240 241 242 243 244 245 246 247 248 249 250 251 252 253 254 255 256 257 258 259 260 261 262 263 264 265 266 267 268 269 270 271 272 273 274 275 276 277 278 279 280 281 282 283 284 285 286 287 288 289 290 291 292 293 294 295 296 297 298 299 300 301 302 303 304 305 306 307 308 309 310 311 312 313 314 315 316 317 318 319 320 321 322 323 324 325 326
        </DataArray>
        <DataArray type="UInt8" Name="types" format="ascii">
 1 1 1 1 1 1 1 1 1 1 1 1 1 1 1 1 1 1 1 1 1 1 1 1 1 1 1 1 1 1 1 1 1 1 1 1 1 1 1 1 1 1 1 1 1 1 1 1 1 1 1 1 1 1 1 1 1 1 1 1 1 1 1 1 1 1 1 1 1 1 1 1 1 1 1 1 1 1 1 1 1 1 1 1 1 1 1 1 1 1 1 1 1 1 1 1 1 1 1 1 1 1 1 1 1 1 1 1 1 1 1 1 1 1 1 1 1 1 1 1 1 1 1 1 1 1 1 1 1 1 1 1 1 1 1 1 1 1 1 1 1 1 1 1 1 1 1 1 1 1 1 1 1 1 1 1 1 1 1 1 1 1 1 1 1 1 1 1 1 1 1 1 1 1 1 1 1 1 1 1 1 1 1 1 1 1 1 1 1 1 1 1 1 1 1 1 1 1 1 1 1 1 1 1 1 1 1 1 1 1 1 1 1 1 1 1 1 1 1 1 1 1 1 1 1 1 1 1 1 1 1 1 1 1 1 1 1 1 1 1 1 1 1 1 1 1 1 1 1 1 1 1 1 1 1 1 1 1 1 1 1 1 1 1 1 1 1 1 1 1 1 1 1 1 1 1 1 1 1 1 1 1 1 1 1 1 1 1 1 1 1 1 1 1 1 1 1 1 1 1 1 1 1 1 1 1 1 1 1 1 1 1 1 1 1 1 1 1 1 1 1 1 1 1 1 1
        </DataArray>
      </Cells>
      <PointData Scalars="overlap">
        <DataArray type="Float32" Name="overlap" format="ascii">
 0.0001255701 0.0003882163 0.0002748661 0.0009894613 0.0002358657 0.0013675577 0.0002083004 0.0002030839 0.0001696468 0.0001512093 0.0001178743 0.0002573539 0.0000352434 0.0007557861 0.0002798683 0.0001947046 0.0000830844 0.0000554574 0.0001134604 0.0000355172 0.0001026603 0.0000968263 0.0003881339 0.0006420924 0.0005216247 0.0002968309 0.0000405129 0.0001100991 0.0004262967 0.0002641451 0.0002720356 0.0004454105 0.0009853432 0.0004063249 0.0000655222 0.0001363575 0.0004597989 0.0000930914 0.0002755936 0.0003206561 0.0002290764 0.0000558713 0.0001623215 0.0003453053 0.0001628568 0.0000928937 0.0001821819 0.0004991840 0.0000608433 0.0006481477 0.0003010080 0.0001540964 0.0002026819 0.0002221630 0.0003898857 0.0001677984 0.0000113001 0.0000967988 0.0001363668 0.0002328092 0.0001143776 0.0007230256 0.0006160331 0.0000122431 0.0001853401 0.0000462246 0.0001157062 0.0002617338 0.0003606259 0.0000761883 0.0000023583 0.0002667975 0.0005375200 0.0005819328 0.0000774481 0.0002850588 0.0001900737 0.0003639384 0.0001387336 0.0005263436 0.0004037784 0.0010868881 0.0004761346 0.0001723096 0.0007468487 0.0001249163 0.0000115082 0.0000469373 0.0000396119 0.0000578135 0.0000069628 0.0000442946 0.0000105883 0.0000059723 0.0000163864 0.0000889657 0.0000569065 0.0000783321 0.0001091175 0.0001600584 0.0000263046 0.0001455325 0.0001858356 0.0001189825 0.0000611248 0.0001456374 0.0000888281 0.0002023388 0.0001026505 0.0001141765 0.0000812622 0.0002197698 0.0000712196 0.0002348548 0.0000260850 0.0002206960 0.0000416396 0.0000420574 0.0000314304 0.0000936847 0.0000104294 0.0002422922 0.0000436090 0.0000122076 0.0000436971 0.0000725705 0.0002096856 0.0000134764 0.0000364341 0.0000244978 0.0000680122 0.0000423508 0.0000180610 0.0000954002 0.0000985612 0.0001741110 0.0000943775 0.0000175834 0.0002105474 0.0007277029 0.0005150027 0.0006797589 0.0005424069 0.0004051691 0.0002693514 0.0002038029 0.0007446451 0.0007273228 0.0000128043 0.0001407354 0.0005298481 0.0000725938 0.0000168445 0.0000179995 0.0000593937 0.0001122487 0.0002344309 0.0000912732 0.0004370624 0.0020809065 0.0026439911 0.0005484469 0.0001208373 0.0021735284 0.0004684078 0.0002064412 0.0001524634 0.0001804292 0.0001449156 0.0001300685 0.0001796465 0.0003688148 0.0004107627 0.0001154897 0.0006177423 0.0001813942 0.0002560938 0.0007762348 0.0008246851 0.0003266012 0.0004663326 0.0002495400 0.0000243433 0.0020727527 0.0002893127 0.0014553446 0.0001566797 0.0000777435 0.0001900004 0.0000922366 0.0000905730 0.0001505281 0.0000152053 0.0000264749 0.0000554445 0.0000680766 0.0000262526 0.0000390781 0.0000585858 0.0005427820 0.0001006547 0.0000399907 0.0000846295 0.0000189164 0.0001822023 0.0001351939 0.0000098537 0.0002100214 0.0000794199 0.0000929230 0.0001398999 0.0000650546 0.0000159682 0.0000315478 0.0000897355 0.0001804011 0.0005820463 0.0004459338 0.0001659900 0.0000974487 0.0000581547 0.0000367474 0.0002867337 0.0001397372 0.0001603530 0.0000193039 0.0002602723 0.0006104905 0.0002179587 0.0001238030 0.0000346902 0.0000372077 0.0000355915 0.0005268767 0.0002558138 0.0004309532 0.0002202510 0.0002200938 0.0002985482 0.0000759855 0.0000052675 0.0002489329 0.0000952619 0.0000041548 0.0000468324 0.0001689522 0.0004265541 0.0001642038 0.0000731949 0.0000585100 0.0008786072 0.0002399373 0.0000782081 0.0009631916 0.0005763949 0.0002297301 0.0000354765 0.0000224659 0.0000133231 0.0001315611 0.0001128068 0.0000081586 0.0001725682 0.0000697604 0.0000626136 0.0002010774 0.0002000638 0.0001289532 0.0004503988 0.0000430833 0.0002269970 0.0000664996 0.0000352559 0.0001515772 0.0001435934 0.0000780649 0.0000836665 0.0000783888 0.0000406653 0.0000305268 0.0004427196 0.0000054147 0.0000140075 0.0003940148 0.0000720293 0.0000142990 0.0002206529 0.0001383376 0.0007404051 0.0005389934 0.0003760327 0.0003497082 0.0000560933 0.0002276340 0.0005461255 0.0001267382 0.0006308343 0.0000736358 0.0005882565 0.0000742837 0.0004958735 0.0001313614 0.0003656501 0.0002483663 0.0000058744 0.0001710216 0.0001713160 0.0000858336 0.0000675854 0.0007382549 0.0000467854 0.0000200615 0.0000834973 0.0000757336 0.0000441896 0.0000515367 0.0000296535 0.0003965116 0.0000411414 0.0001117113 0.0000359136 0.0001238378 0.0002399182 0.0000297157 0.0001045861 0.0000851857
        </DataArray>
        <DataArray type="Float32" Name="contact normal" NumberOfComponents="3" format="ascii">