<?xml version="1.0"?>
<VTKFile type="UnstructuredGrid" version="0.1" byte_order="LittleEndian">
  <UnstructuredGrid>
    <FieldData>
      <DataArray type="Float32" Name="TIME"  NumberOfTuples="1" format="ascii"> 0.9000000000 </DataArray>
      <DataArray type="Int32"   Name="STEP"  NumberOfTuples="1" format="ascii"> 90000 </DataArray>
    </FieldData>
    <Piece NumberOfPoints="241" NumberOfCells="241">
      <Points>
        <DataArray type="Float32" NumberOfComponents="3" format="ascii">
 1.3522236405 0.1933930002 -1.2187449800 1.4042197033 0.1193541450 -1.3201007195 1.4802524496 0.1266240093 -1.1958281117 1.5338596073 0.0946229833 -1.3401948042 1.5296076902 0.3421201596 -1.1885207503 1.5414369645 0.3364359336 -1.1952302901 1.5477590349 0.4254957534 -1.2094022112 1.6428185500 0.1635023708 -1.3846036687 1.6507645165 0.1700594197 -1.3850225465 1.6147079591 0.4363928058 -1.2999786470 1.6222507465 0.4366729714 -1.3135153331 1.6015789170 0.3662805718 -1.4727500350 1.6119716807 0.3633383731 -1.4817364076 1.6325819774 0.3785236605 -1.4906148804 1.7540263819 0.3666635894 -1.3540665921 1.7772116962 0.3523481454 -1.4480126345 1.9932304208 0.2615353063 -0.9828226373 1.9495271427 0.3164412943 -1.0781359775 1.9501422414 0.3116952197 -1.0865247624 2.0510059996 0.5054007712 -1.1562510468 2.0529709852 0.4959555141 -1.1762775022 2.0402032470 0.2746986008 -1.1995621508 2.0421375816 0.2878737800 -1.2080115926 2.0113448489 0.4525046313 -1.2814155223 2.0026084998 0.4349151747 -1.2664686900 1.2006076509 0.7898809787 -1.0842107087 1.2043114467 0.7815139306 -1.0889104060 1.2179960537 0.7734883589 -1.0918311438 1.1241806646 0.8815197634 -0.9299632892 1.1365670429 0.8834769882 -0.9316925899 1.1334189801 0.8848797051 -0.9193991197 1.1710129920 0.7062177572 -1.0006439893 1.1516888254 0.7792869530 -0.8767246177 1.1591790367 0.7731837874 -0.8788116090 1.5962507437 0.7344556616 -1.1516540166 1.6920661947 0.7311404110 -1.2154718974 1.6012932260 0.7196417786 -1.2698429927 1.6055855939 0.7232983416 -1.2731831032 1.6006958826 0.7251256696 -1.2767806088 1.4623383535 0.7470737300 -1.2287774220 1.7055320325 0.8342818467 -1.2728617990 1.5378359829 0.8296028258 -1.1995318388 1.5330194443 0.8305926257 -1.2052017183 1.5414268129 0.8344981377 -1.2049258362 1.5371546509 0.8356988741 -1.2109039894 1.5334742897 0.8374004778 -1.2175658337 1.4121729006 0.4395561169 -0.7573261648 1.2663096947 0.6297681861 -0.8740148758 1.4950002106 0.5074916384 -0.8087927924 1.5032516195 0.5065480879 -0.8180041176 1.4884637434 0.4195771711 -0.8572870619 1.5084082048 0.5223316043 -0.8175328159 1.5153128176 0.5204928311 -0.8255884654 1.4110966507 0.4277062731 -0.9719451963 1.3656189282 0.7294065188 -0.7310840504 1.3804269477 0.7547790276 -0.9455433018 1.5901593856 0.4934802114 -0.9423618149 1.5984352136 0.5044139385 -0.9430640612 1.5851316505 0.7954755620 -0.8635531924 1.5283348127 0.8805800778 -1.0371344834 1.8953135956 0.2973441753 -1.0795570934 1.9019416930 0.2944774086 -1.0912669078 1.8736365030 0.1483035834 -1.0835229626 1.6033118956 0.0451328640 -1.2868576120 1.7055174159 0.2150218931 -1.2519275052 1.7913032639 0.3483702596 -1.2309095482 1.8021682070 0.3557252491 -1.2286728378 1.6206921468 0.2886917011 -1.1308533647 1.6955020556 0.1976175418 -1.0111776382 1.6800810150 0.1947355474 -1.0107590763 1.5763520425 0.2334283461 -1.0500552116 1.1837546125 0.4237863826 -1.0775993377 1.1776730330 0.4191806831 -1.0674517703 1.1646233406 0.4243612888 -0.9705135688 1.1671616574 0.4508425880 -0.9505290597 1.1728865604 0.4600353932 -0.9449599918 1.1695582984 0.4689162747 -0.9370889189 1.1751447297 0.4759508362 -0.9332312037 1.1718706231 0.4834846138 -0.9263808973 1.1741239425 0.4966102106 -0.9168012945 1.1708101818 0.5042625926 -0.9098651910 1.1438300737 0.5874485871 -0.9965666557 1.1409512164 0.5911032571 -0.9903840909 1.1457662522 0.5959578011 -0.9918709971 1.1922340027 0.6376034066 -0.8609135982 1.1887031975 0.6461523593 -0.8699227367 1.2531019206 0.3653592497 -0.8928169502 1.3162879157 0.2770058300 -0.9818896758 1.3116199529 0.2686685018 -0.9788260222 1.3221204295 0.2773234573 -0.9850859249 1.3053440735 0.2630713873 -0.9750565360 1.3177861953 0.2676264961 -0.9821082686 1.3275644430 0.2794719420 -0.9881838353 1.3328627877 0.2835841204 -0.9913255469 1.3382778447 0.2900655119 -0.9946750071 1.3441487890 0.2997269565 -0.9984533605 1.1921934199 0.2933724865 -0.8472939850 1.3510311773 0.2976463990 -1.0020797907 1.4077878888 0.3004936461 -0.9376596783 1.2193068025 0.2184126142 -0.8390058560 1.1739494862 0.1438999910 -0.8666698355 1.1867554944 0.1198457879 -0.8746155853 1.4075978125 0.1198280867 -0.9177688107 1.4139411791 0.1294645526 -0.9216544493 1.9263226200 0.1527513663 -1.2404184490 1.8778603832 0.0751490470 -1.2457084060 1.9425164376 0.1007661145 -1.0525708564 1.8181305831 0.6917651067 -0.9927548978 1.7725148142 0.6150107546 -1.1460495779 1.8701450896 0.6690873057 -1.1262701922 1.8678948899 0.6717576092 -1.1323453110 1.8712896270 0.6779957434 -1.1304248184 1.7990750462 0.7454037772 -1.1507166466 1.5424683197 0.4948258229 -1.1845655183 1.6164363170 0.4966166706 -1.1814390644 1.6213605355 0.5158012639 -1.1767893141 1.6304627441 0.5078355015 -1.1858890539 1.5240612088 0.5493319062 -1.3226509608 1.5372557460 0.5604005143 -1.3330802318 1.7162121512 0.6366301709 -1.2611806455 1.7251841596 0.6387967318 -1.2670421477 1.7694431950 0.4516903025 -1.3368562294 1.7775133646 0.4617527720 -1.3393990318 1.6361888403 0.7282768896 -1.3660170006 1.7344863539 0.6411192435 -1.2731679982 1.7853376424 0.4715417187 -1.3420187130 1.6442282585 0.7256512240 -1.3749550798 1.7445479966 0.6437920259 -1.2798916038 1.6522272051 0.7237977546 -1.3840383464 1.7560054199 0.6471050721 -1.2877046170 1.7165827423 0.7487343348 -1.3677234404 1.8164969099 0.5409899719 -1.4378029457 1.7380830760 0.6242680832 -1.4897640452 1.8761735891 0.6535368248 -1.3755106020 1.8821736037 0.6470892945 -1.3887612309 1.3826826489 0.7390020502 -1.2805633301 1.4751563307 0.6609190208 -1.3549312887 1.5518200111 0.1308279486 -0.9392599191 1.5397880431 0.0390234481 -0.8711770208 1.3668149336 0.1438010454 -0.8188333237 1.4447929395 0.0856471331 -0.7997846513 1.3631991273 0.0441373329 -0.7780162629 1.2924187344 0.0629934550 -1.1295192782 1.3062602785 0.1543684417 -1.1628322548 1.3131237944 0.1548147872 -1.1621722903 1.3338421723 0.1832693510 -1.0951678690 1.3649823319 0.2291440145 -0.7109644413 1.4517495553 0.4637901266 -1.1582556571 1.6911235523 0.5538630060 -1.5175491348 1.6832690858 0.5586835211 -1.5138436582 1.7446086616 0.0519915908 -1.2995828769 1.7190346178 0.0657236484 -1.2582999505 1.7292251107 0.0700409733 -1.2574827825 1.7224711002 0.0720998656 -1.2537839123 1.8192717462 0.0975578981 -1.3107728810 1.6954472345 0.1713074169 -1.3525538971 1.7004893760 0.1749590084 -1.3528412645 1.9552502892 0.5751802655 -1.3298594264 1.9117520599 0.4475650094 -1.2980162306 1.9112701305 0.4425579828 -1.3022295461 1.9069646146 0.4405217979 -1.2976876151 1.8613398205 0.3551412628 -1.3609709783 1.8409652813 0.6280397925 -1.2255364825 1.7389642173 0.5832999128 -1.1661777345 1.7312178023 0.5879216282 -1.1609203259 1.2540731787 0.8826278774 -0.8550799309 1.2607932702 0.8817310493 -0.8508816169 1.1946251434 0.2616661797 -1.0866366806 1.1978935144 0.2572662431 -1.0931970578 1.2823397531 0.2534664832 -1.1782259315 1.2382949152 0.3992308962 -1.1298875720 1.2366821101 0.4001996784 -1.1377478524 1.2431595269 0.3944727334 -1.1383083421 1.3028432668 0.1428228426 -0.7779520418 1.3411321582 0.1796819837 -0.7986171453 1.2509805339 0.2537847536 -0.8327299131 1.6761440345 0.0152211911 -1.0556440866 1.7102665878 0.1380833409 -0.9488935345 1.7126317330 0.1362839779 -0.9539968410 1.7069663878 0.1330533613 -0.9499953458 1.6036865924 0.1494646071 -0.9687944421 1.6897588866 0.7699021123 -0.8846588556 1.6779407054 0.7760820778 -0.8086162998 1.2494498564 0.0556297775 -1.0605871207 1.1965327676 0.0463904688 -1.0857630924 1.1912478310 0.0440418212 -1.0904597073 1.3699960454 0.7838980967 -1.1009745366 1.4330810037 0.9073891158 -1.0724659300 1.4427734190 0.9075030389 -1.0838622038 1.4150079415 0.8838122408 -1.1006691596 1.1137299218 0.1988481004 -1.0074474382 1.1078078932 0.1927401669 -1.0079113175 1.1833868632 0.1188595007 -1.0725061408 1.7920476551 0.8795417618 -1.2776093739 1.8787607874 0.8684982365 -1.2193381689 1.7837963355 0.8832553008 -1.2695613825 1.8732118513 0.8534687218 -1.2141374019 1.8744806106 0.8473684482 -1.2167766331 1.9053116586 0.6359484514 -1.1673936059 1.9084033770 0.6395958387 -1.1697740885 1.9051245930 0.6418721478 -1.1729078959 1.9083645618 0.6462427877 -1.1758874105 1.9236202630 0.3459300032 -1.2775758486 1.3365807442 0.0544488156 -0.6939300767 1.7372690936 0.0374946966 -1.1844853289 1.7391153808 0.0316374237 -1.1907072213 1.7389474779 0.0247237678 -1.2707929062 1.8435458666 0.0084900596 -1.3390140287 1.8513689127 -0.0024415886 -1.2901405949 1.8490763372 0.0011699087 -1.2809184584 1.3096838410 0.1257972815 -1.2279533192 1.8123214362 0.8387411477 -1.3857857762 1.7337672662 0.8696329976 -1.3688871042 1.5469537408 0.4815147295 -0.7302703421 1.3837424191 0.6109265219 -0.6357679701 1.7105424452 0.0846667916 -1.5458679167 1.7181465954 0.0954615763 -1.5380486067 1.7197301870 0.1007575884 -1.5329534956 1.7219700183 0.1048788225 -1.5295651483 1.7249585454 0.1082261389 -1.5274884745 1.7289105909 0.1110222361 -1.5265895928 1.7170103186 0.0271173769 -1.1172640111 1.7057791801 0.0261505488 -1.1113004556 1.7386422748 0.0315315545 -1.1262188621 1.1930209977 0.6165011884 -1.0571153362 1.1840160167 0.6042504567 -1.0590813020 1.3389000459 0.6396510093 -1.0797129590 1.3257628064 0.5063415854 -1.1624601907 1.4137207785 0.4684493152 -1.2684352763 1.3863669397 0.4452720979 -0.7155793786 1.3006511991 0.3201374374 -0.7684861661 1.3386757308 0.3007507450 -0.7096439801 1.3062382066 0.3107391826 -0.7701786628 1.5846905072 0.0395138501 -0.8807437430 1.5654293822 0.0212313279 -0.8207584337 1.5632381795 0.0196594249 -0.8153180654 1.2164732002 0.4266979265 -0.8812812188 1.2098407056 0.4243685278 -0.8791351157 1.7070804045 -0.0285871661 -0.9714778745 1.4986051774 0.8943925809 -1.1265025800 1.4915323410 0.8886640778 -1.1258967643
        </DataArray>
      </Points>
      <Cells>
        <DataArray type="Int32" Name="connectivity" format="ascii">
 0 1 2 3 4 5 6 7 8 9 10 11 12 13 14 15 16 17 18 19 20 21 22 23 24 25 26 27 28 29 30 31 32 33 34 35 36 37 38 39 40 41 42 43 44 45 46 47 48 49 50 51 52 53 54 55 56 57 58 59 60 61 62 63 64 65 66 67 68 69 70 71 72 73 74 75 76 77 78 79 80 81 82 83 84 85 86 87 88 89 90 91 92 93 94 95 96 97 98 99 100 101 102 103 104 105 106 107 108 109 110 111 112 113 114 115 116 117 118 119 120 121 122 123 124 125 126 127 128 129 130 131 132 133 134 135 136 137 138 139 140 141 142 143 144 145 146 147 148 149 150 151 152 153 154 155 156 157 158 159 160 161 162 163 164 165 166 167 168 169 170 171 172 173 174 175 176 177 178 179 180 181 182 183 184 185 186 187 188 189 190 191 192 193 194 195 196 197 198 199 200 201 202 203 204 205 206 207 208 209 210 211 212 213 214 215 216 217 218 219 220 221 222 223 224 225 226 227 228 229 230 231 232 233 234 235 236 237 238 239 240
        </DataArray>
        <DataArray type="Int32" Name="offsets" format="ascii">
 1 2 3 4 5 6 7 8 9 10 11 12 13 14 15 16 17 18 19 20 21 22 23 24 25 26 27 28 29 30 31 32 33 34 35 36 37 38 39 40 41 42 43 44 45 46 47 48 49 50 51 52 53 54 55 56 57 58 59 60 61 62 63 64 65 66 67 68 69 70 71 72 73 74 75 76 77 78 79 80 81 82 83 84 85 86 87 88 89 90 91 92 93 94 95 96 97 98 99 100 101 102 103 104 105 106 107 108 109 110 111 112 113 114 115 116 117 118 119 120 121 122 123 124 125 126 127 128 129 130 131 132 133 134 135 136 137 138 139 140 141 142 143 144 145 146 147 148 149 150 151 152 153 154 155 156 157 158 159 160 161 162 163 164 165 166 167 168 169 170 171 172 173 174 175 176 177 178 179 180 181 182 183 184 185 186 187 188 189 190 191 192 193 194 195 196 197 198 199 200 201 202 203 204 205 206 207 208 209 210 211 212 213 214 215 216 217 218 219 220 221 222 223 224 225 226 227 228 229 230 231 232 233 234 235 236 237 238 239 240 241
        </DataArray>
        <DataArray type="UInt8" Name="types" format="ascii">
 1 1 1 1 1 1 1 1 1 1 1 1 1 1 1 1 1 1 1 1 1 1 1 1 1 1 1 1 1 1 1 1 1 1 1 1 1 1 1 1 1 1 1 1 1 1 1 1 1 1 1 1 1 1 1 1 1 1 1 1 1 1 1 1 1 1 1 1 1 1 1 1 1 1 1 1 1 1 1 1 1 1 1 1 1 1 1 1 1 1 1 1 1 1 1 1 1 1 1 1 1 1 1 1 1 1 1 1 1 1 1 1 1 1 1 1 1 1 1 1 1 1 1 1 1 1 1 1 1 1 1 1 1 1 1 1 1 1 1 1 1 1 1 1 1 1 1 1 1 1 1 1 1 1 1 1 1 1 1 1 1 1 1 1 1 1 1 1 1 1 1 1 1 1 1 1 1 1 1 1 1 1 1 1 1 1 1 1 1 1 1 1 1 1 1 1 1 1 1 1 1 1 1 1 1 1 1 1 1 1 1 1 1 1 1 1 1 1 1 1 1 1 1 1 1 1 1 1 1 1 1 1 1 1 1 1 1 1 1 1 1
        </DataArray>
      </Cells>
      <PointData Scalars="overlap">
        <DataArray type="Float32" Name="overlap" format="ascii">
 0.0001018061 0.0001112454 0.0000979780 0.0000529019 0.0000774436 0.0000421904 0.0001180726 0.0000531978 0.0002455292 0.0003674387 0.0000428030 0.0000381826 0.0000133517 0.0003191869 0.0002096889 0.0000990382 0.0000857539 0.0003585144 0.0002226615 0.0003941852 0.0000767918 0.0003017483 0.0002470146 0.0001187465 0.0004526269 0.0000592658 0.0004835592 0.0000527086 0.0002629917 0.0000927707 0.0001005477 0.0005918810 0.0002659273 0.0002401065 0.0001288935 0.0002395170 0.0002346232 0.0005642684 0.0000620849 0.0000896941 0.0000735643 0.0001127902 0.0001575090 0.0001864598 0.0003507482 0.0001259836 0.0000789500 0.0001810692 0.0001054207 0.0000404206 0.0000084596 0.0000222302 0.0000664374 0.0003089202 0.0001705131 0.0000358373 0.0001352920 0.0000344632 0.0000467172 0.0002122673 0.0000286209 0.0001819525 0.0000522590 0.0000371642 0.0001630875 0.0000560402 0.0000568091 0.0001799034 0.0000116090 0.0001578362 0.0000622263 0.0000363134 0.0000250461 0.0000057565 0.0000406338 0.0000443623 0.0000523969 0.0000107146 0.0000403225 0.0000036313 0.0000061706 0.0000029584 0.0001191862 0.0000954754 0.0000542661 0.0000643541 0.0000066976 0.0000498375 0.0000369196 0.0000744503 0.0000120577 0.0000359347 0.0000897025 0.0001057407 0.0001192127 0.0001031564 0.0000498544 0.0001234686 0.0000318584 0.0000453991 0.0000083627 0.0000474649 0.0000729820 0.0000282704 0.0000146220 0.0000325476 0.0001229762 0.0001526155 0.0000339425 0.0000340304 0.0001648738 0.0000092306 0.0002547923 0.0001227420 0.0001337208 0.0001655209 0.0001055955 0.0001906985 0.0000424529 0.0000230577 0.0000463376 0.0001193956 0.0002578446 0.0001474277 0.0000664348 0.0002046032 0.0009896798 0.0000867664 0.0004629332 0.0000999673 0.0000347098 0.0001313033 0.0001870651 0.0002692438 0.0000840354 0.0000609801 0.0001515925 0.0000306870 0.0000726817 0.0000744121 0.0000081162 0.0000866747 0.0000234489 0.0000094658 0.0000019958 0.0000130574 0.0001903056 0.0000421485 0.0001032302 0.0000597460 0.0000681601 0.0000333891 0.0000372011 0.0000941573 0.0000310114 0.0002173022 0.0000427177 0.0000592286 0.0001375049 0.0001022538 0.0001369881 0.0000939211 0.0000456802 0.0000264468 0.0000366256 0.0000513755 0.0000559190 0.0003342390 0.0000148388 0.0000236889 0.0002640731 0.0000979427 0.0000890585 0.0000488738 0.0000707873 0.0000121912 0.0000128100 0.0001506551 0.0002172785 0.0001240328 0.0000734519 0.0000370694 0.0000826734 0.0000712802 0.0000908500 0.0000712177 0.0000877558 0.0000587227 0.0000506476 0.0001372951 0.0001272276 0.0000517902 0.0001991011 0.0001866398 0.0000152896 0.0000681136 0.0000068529 0.0000707407 0.0000020722 0.0000000931 0.0000150347 0.0000184203 0.0000434495 0.0000251532 0.0000959256 0.0000400083 0.0000177344 0.0000039496 0.0000162874 0.0000455086 0.0001215867 0.0000104718 0.0000010894 0.0000670178 0.0000524648 0.0000271429 0.0000633751 0.0000287025 0.0000090408 0.0000085876 0.0000217809 0.0000347423 0.0000275480 0.0000164675 0.0000427172 0.0000043835 0.0000269866 0.0000046461 0.0000293119 0.0000532155 0.0000057025 0.0000097524 0.0000217829 0.0000353308 0.0000423307 0.0000126786 0.0000180510 0.0000151915 0.0000557105 0.0000065513 0.0000532546
        </DataArray>
        <DataArray type="Float32" Name="contact normal" NumberOfComponents="3" format="ascii">
 0.6445568058 -0.1674064284 -0.7460037613 0.5509491022 0.7481803090 0.3697043576 -0.4308353822 0.7358765283 -0.5223663547 -0.5449267173 0.7680347724 -0.3364185802 -0.5751434168 0.0294052613 -0.8175239328 -0.4677634485 -0.0339693855 -0.8832006777 0.2791770546 -0.7474542618 -0.6028036984 -0.7003074739 0.6811798569 -0.2134559545 -0.6505554482 0.7233831309 -0.2312886829 -0.3398894261 -0.9278159432 -0.1537294818 -0.3104077440 -0.8488610219 -0.4278808221 0.4592927354 -0.5186654470 0.7211354501 0.4644303413 -0.5114254110 0.7230134902 0.5019016753 -0.4551282154 0.7354950822 -0.6405592338 -0.0167824888 -0.7677253520 -0.2632216208 -0.1122906221 0.9581780599 -0.8834757256 0.3477512104 -0.3139103980 0.8929566465 -0.2238429778 0.3905416095 0.9260506368 -0.2157097049 0.3096765106 -0.9824216455 -0.1404297568 -0.1229926580 -0.9752389727 -0.1616937281 -0.1508777137 -0.9682244135 0.2087307013 0.1377424385 -0.9009090145 0.4264878475 -0.0804429211 0.8971850654 0.0123504498 0.4414820776 0.8609885594 -0.1034241543 0.4979981374 -0.4006836509 -0.5895654378 0.7013310249 -0.4193723982 -0.6632146578 0.6198976604 -0.1097578711 -0.5678449468 0.8157850980 0.1723026233 -0.9737342380 0.1488403164 0.2360084804 -0.9568702748 0.1694086017 0.2360346002 -0.9568623552 0.1694169436 0.4164020062 0.9085388328 -0.0341549199 0.2575919768 0.5650827439 -0.7837907029 0.2899688057 0.5284422938 -0.7979140516 -0.4801855577 -0.1073075851 -0.8705784929 -0.7487551707 0.6581901471 0.0784310182 -0.4969312273 0.6452101416 0.5803130435 -0.4361544282 0.6639511155 0.6074028572 -0.4698262781 0.6711942757 0.5733772865 0.7671734592 0.1812345875 0.6153039150 0.0588467302 -0.7105443324 0.7011874315 0.3287269860 -0.8407925624 -0.4301237447 0.3359768378 -0.8353480074 -0.4351014490 0.4343952819 -0.7805919968 -0.4494183726 0.4166804973 -0.7914387969 -0.4472158248 0.4043556345 -0.7987192313 -0.4455828884 0.1555455115 0.8120507674 -0.5624759062 0.6458898567 -0.4317851278 0.6295934374 -0.7088308767 0.2645009207 -0.6539098188 -0.7034405767 0.2429762745 -0.6679325453 -0.5392407946 0.7146838596 -0.4454731713 -0.7027738542 0.3097608342 -0.6404351142 -0.7019870555 0.2751054452 -0.6569103196 0.3408850866 0.5301915759 0.7763338525 -0.1288630030 -0.4289654859 -0.8940821765 0.4238178766 -0.9028174474 0.0727946708 -0.8609088090 0.3583670405 -0.3611219834 -0.7577370753 0.6525498027 -0.0036441447 -0.5557197294 -0.1845824570 -0.8106200706 0.3521131596 -0.7453911383 0.5660462646 0.7313978786 -0.4012669112 0.5514000445 0.7367642287 -0.3961304343 0.5479590772 -0.6261987172 0.7573803185 -0.1850681489 -0.0251554804 -0.4353905137 0.8998901613 0.0933755567 0.6317194035 0.7695528576 -0.3953384282 -0.7713933551 0.4986580180 0.6739717493 -0.4032647455 0.6189827350 0.6705471070 -0.2920060212 0.6819817159 -0.0294294472 0.8285550992 -0.5591335754 -0.2565863434 0.6002886158 -0.7575071129 0.8906926994 0.4271475819 -0.1556003168 0.0312661967 0.9373372365 0.3470177661 -0.1797619740 0.6977849413 0.6933843151 -0.2276075139 0.6002364524 -0.7667535594 -0.2276509712 0.6002537385 -0.7667271254 -0.1769102289 0.6008815084 -0.7795153519 -0.2276667502 0.6002532850 -0.7667227952 -0.2275697623 0.6002560711 -0.7667494065 -0.2276709743 0.6002531636 -0.7667216360 -0.2276709131 0.6002531653 -0.7667216528 -0.2277725158 0.6002502401 -0.7666937657 0.6285717364 -0.5848442176 0.5126936837 0.6441550233 -0.5270588996 0.5543223090 0.6457430392 -0.5201659849 0.5589662562 -0.3188531916 -0.9142796910 -0.2498505329 0.2725679415 -0.5781729838 -0.7690401277 -0.2063626232 -0.2874821348 -0.9352905912 0.4738012610 0.0577099330 0.8787388285 0.4741166818 0.0572983810 0.8785956223 0.4742504815 0.0571241039 0.8785347560 0.4740717554 0.0573570068 0.8786160393 0.4746982143 0.0565391007 0.8783307666 0.4745118639 0.0567827803 0.8784157369 0.4746019059 0.0566754814 0.8783740210 0.4746030952 0.0569096390 0.8783582384 0.4742015834 0.0574969713 0.8785368271 -0.5030528874 -0.2388307376 -0.8306007893 0.4755673872 0.0579552084 0.8777681095 -0.4455257282 -0.1350254178 -0.8850282267 -0.1719032834 -0.3174622935 -0.9325593565 0.8851009887 0.4611286155 0.0629018267 0.9127385290 0.4020609505 -0.0724939292 -0.4743155550 -0.0484153700 -0.8790225857 -0.4941869571 -0.0196304657 -0.8691339921 0.5612893646 -0.7574877806 0.3334164234 0.7851817037 0.1247516794 0.6065696256 -0.5394584726 0.4546489626 -0.7087163587 0.4026118288 0.1358892049 -0.9052280593 0.7276979038 0.6826290544 -0.0668829941 -0.8146600983 0.3348069594 0.4735327065 -0.8166482425 0.3329679044 0.4714000665 -0.8121994985 0.3377357345 0.4756748346 0.5267772846 -0.6833302098 0.5055348819 0.2372097342 0.8990266368 -0.3680796767 -0.7858188554 -0.4531739610 -0.4208587502 -0.3059205725 0.5871296731 -0.7494607063 -0.2663002532 0.5442155398 -0.7955586851 0.6566998596 -0.1097255601 0.7461270641 0.6894014866 -0.1327559926 0.7121105509 -0.3719155345 -0.5293467552 -0.7625423582 -0.3721189039 -0.5292520270 -0.7625088939 -0.6940137424 0.3980145163 -0.5999411389 -0.6940195731 0.3980248532 -0.5999275360 0.2371425655 -0.8031187471 0.5465927932 -0.3722263004 -0.5290647326 -0.7625864476 -0.6940247379 0.3980340092 -0.5999154863 0.3193700433 -0.8416205735 0.4355199028 -0.3725335200 -0.5287934146 -0.7626246135 0.3809322226 -0.8709968693 0.3102500531 -0.3735332227 -0.5288592495 -0.7620897754 0.0442051327 -0.8530600119 0.5199370369 -0.7271589641 0.4800436848 0.4907116277 0.6007143361 0.2504838947 0.7592101849 -0.8859842754 0.4610667027 0.0494910037 -0.5354976469 -0.2080088122 -0.8185197641 -0.3310869614 -0.5700156743 -0.7519731080 -0.9550434150 0.2520968191 -0.1560104780 -0.5021715708 0.4049833534 0.7640760414 -0.8551813350 0.4716426900 -0.2149838534 0.0263909812 -0.4896862531 -0.8714992195 -0.4003432571 -0.0485642257 -0.9150774789 0.7413931738 0.2382340825 -0.6273600910 0.2897543945 0.9535745528 0.0820850964 -0.1070499932 -0.2796300361 0.9541212407 -0.0839627157 -0.2830017333 0.9554372200 -0.1355641172 -0.4166040844 -0.8989234711 -0.1545287088 -0.6775458616 0.7190636158 0.9739279196 0.2248117482 -0.0303987713 0.5911701120 0.7593389602 0.2718864507 0.5492946607 0.8054663447 0.2224844790 0.0582262042 0.9344747799 0.3512358109 -0.3047956359 0.6272729720 -0.7166786162 -0.2393821721 0.6538757205 -0.7177344341 -0.2643710438 0.6453716276 -0.7166612962 -0.7612903969 0.5057452733 -0.4057815301 0.3715124802 -0.6040070236 0.7050914781 0.3732373142 -0.5943043806 0.7123876827 -0.6400997498 -0.7292471832 0.2418074773 -0.7077116708 0.6949479029 -0.1272462312 -0.6895308178 0.4207669648 -0.5894933525 -0.7835035316 0.3248438806 -0.5297156494 -0.6567810796 0.7314650831 0.1832960601 -0.7623512444 0.4268395189 -0.4864448635 -0.2084518801 0.5187582030 -0.8291186529 -0.2487195558 0.5601883942 -0.7901440030 -0.4661799484 0.3406162440 0.8164905572 -0.4659648540 0.3351457851 0.8188736518 0.6917128536 0.7215012216 -0.0311338294 0.5457291074 0.7234632910 -0.4228245593 -0.6751820146 0.2006207812 0.7098454404 -0.6031168946 -0.7932125744 0.0840465547 -0.6317268052 -0.7740918738 0.0412675958 -0.6283250106 -0.7768459149 0.0414500373 -0.4457994314 -0.2732101318 -0.8524195509 -0.1515790246 -0.2851989266 -0.9464065572 0.2196101030 -0.5972222929 -0.7714252625 -0.9376671733 0.3076381278 0.1616757698 -0.6303772507 0.5898165971 -0.5047186379 -0.6303340568 0.5886190975 -0.5061684847 -0.6381919019 0.5806066672 -0.5055759036 0.8397296993 -0.2770393105 0.4670152594 0.7213403194 0.0896974724 0.6867477754 0.0983382992 -0.2395669889 -0.9658867619 -0.2569524686 -0.6848667974 -0.6818598820 0.3732091272 0.5859156846 -0.7193175640 0.3633642564 0.5969780104 -0.7152507758 -0.2107379305 0.8802166685 -0.4252154055 -0.8885478973 -0.0770264466 -0.4522715564 -0.8314482693 0.1483037405 -0.5354435320 0.3088125987 -0.3602835705 0.8802445840 -0.3699852631 0.4437430001 -0.8162126285 -0.3515833733 0.3631700537 -0.8628421893 -0.3655215093 0.2540458063 -0.8954634300 0.7145199685 -0.4577419141 0.5290874735 -0.8353815036 0.1087308334 -0.5388091956 0.6562206655 0.1473280355 0.7400465446 -0.8415189812 0.1116209133 -0.5285703132 -0.8028561628 0.0940576842 -0.5887063222 0.2159624836 -0.6630807103 -0.7167176413 0.2201800849 -0.6617806654 -0.7166359474 0.2165449455 -0.6625749768 -0.7170095444 0.2204627728 -0.6600162690 -0.7181745543 -0.3919909081 0.9180441001 -0.0594824196 -0.2231045067 0.8998683075 0.3747818142 -0.4586890551 0.4317462206 -0.7766592250 -0.4624009287 0.4169230390 -0.7825347026 0.0050446525 -0.0573973289 0.9983386690 0.6615284621 0.4126360251 0.6261881543 -0.1608570110 0.8177721267 -0.5526063434 -0.1700008530 0.8450164480 -0.5069979414 -0.5655034549 0.7670521893 0.3030458405 0.8744272770 0.1723167669 -0.4535238351 0.3889141858 -0.6870652653 0.6137483828 -0.6641311415 0.3614199431 -0.6544504959 -0.2714755995 0.5585673044 -0.7837752008 0.3568287125 -0.7006844107 0.6178305807 0.3569861647 -0.7004753530 0.6179766647 0.3569568812 -0.7004545641 0.6180171426 0.3569461670 -0.7004522860 0.6180259128 0.3569600990 -0.7004541992 0.6180156976 0.3570002928 -0.7004596962 0.6179862498 -0.3549425927 0.8026148933 -0.4794007602 -0.3291698974 0.8965921325 -0.2962595596 -0.2716562085 0.9233526979 -0.2713350321 0.6476964639 -0.2337343684 -0.7251603517 0.5626532665 -0.4084018961 -0.7187692209 -0.4943775976 -0.8452613144 0.2027907821 -0.5167543068 0.8299864551 -0.2099701663 0.1232844091 -0.1871078649 0.9745725224 -0.4843522788 -0.0767151475 -0.8715031017 0.5990985986 0.3305513882 0.7292576012 0.0125086871 0.7817708385 -0.6234403651 0.7521028984 0.3084855736 0.5823898016 -0.9132776564 0.3720381335 0.1658660593 -0.8592234552 0.4607848057 -0.2222890390 -0.8581205238 0.4622968990 -0.2234071258 -0.3920111515 0.5300830492 -0.7518904295 -0.4346779667 0.5140564257 -0.7394599762 0.0127126522 0.1684063033 -0.9856356860 0.3253746066 -0.2602877558 0.9090553611 0.3191471563 -0.3105227423 0.8953885855
        </DataArray>
        <DataArray type="Float32" Name="contact force" NumberOfComponents="3" format="ascii">