<?xml version="1.0"?>
<VTKFile type="UnstructuredGrid" version="0.1" byte_order="LittleEndian">
  <UnstructuredGrid>
    <FieldData>
      <DataArray type="Float32" Name="TIME"  NumberOfTuples="1" format="ascii"> 0.1000000000 </DataArray>
      <DataArray type="Int32"   Name="STEP"  NumberOfTuples="1" format="ascii"> 10000 </DataArray>
    </FieldData>
    <Piece NumberOfPoints="306" NumberOfCells="306">
      <Points>
        <DataArray type="Float32" NumberOfComponents="3" format="ascii">
 0.4268807194 0.2105693137 0.0391146292 0.5305963180 0.1320241811 0.0000789766 0.5086423664 0.1488193549 0.1433077362 0.6421625194 0.1096910829 0.0699713920 0.5454654922 0.3656036910 0.1671454335 0.5587267636 0.3598533523 0.1700299111 0.5742515760 0.4480914517 0.1576990488 0.7552684888 0.1787381379 0.1020497667 0.7617236626 0.1854724712 0.1064393650 0.6840617241 0.4553841850 0.1311858179 0.8525101950 0.2317913445 0.0702292587 0.7842359764 0.3747156370 -0.0044862828 0.8196635646 0.3867171982 0.0011015493 0.8107453269 0.3947561297 0.1824148110 0.8241267070 0.3863081644 0.1841914446 0.9022032599 0.3670512112 0.1284791644 0.7984813746 0.3575621742 0.5204013499 0.8813547488 0.5988745318 0.4711653049 0.9140355905 0.5390220306 0.5284160339 0.9257877662 0.5482658734 0.5171556191 0.9066683379 0.6001878720 0.4542517070 0.9529771993 0.3022028653 0.4800123794 0.9579811732 0.4678838323 0.4075681271 0.2493900784 0.8052738431 0.0169019519 0.0720637733 0.9074305743 0.0672418752 0.0821243213 0.9103446671 0.0747869484 0.0707706091 0.9119355431 0.0818332966 0.2625024092 0.8225890191 0.0668030073 0.1507295256 0.7326911441 0.0582517424 0.1620470961 0.7276915068 0.0584365124 0.1667268717 0.7232025400 0.0627301145 0.0643512101 0.8094774045 0.1341377226 0.0711644776 0.8031717345 0.1375464347 0.0702120916 0.8094851713 0.1452755756 0.0772259626 0.8032734684 0.1484523551 0.1803743395 0.7246719048 0.1218848804 0.1940860645 0.8310950657 0.1724413237 0.2006401824 0.8227989501 0.1731449742 0.1942068084 0.8238425424 0.1771278590 0.5797229294 0.7614153431 0.2137349600 0.6940308077 0.7572966303 0.2276798873 0.6600485845 0.7394589104 0.1283658289 0.7175819853 0.8113065750 0.2458926770 0.6656448378 0.7429489458 0.1283516191 0.6640630835 0.7445792585 0.1223439635 0.6158376109 0.8501751218 0.2134477242 0.6202566024 0.8545566932 0.2105334216 0.5279943789 0.7648356473 0.0676904205 0.7429723361 0.8571541679 0.1857483298 0.5739696432 0.8561766632 0.1309930290 0.5745977425 0.8568856555 0.1236081382 0.1823308658 0.4829252438 0.2957765597 0.1793138248 0.4852420557 0.4138305302 0.1464120548 0.6639780461 0.2189890396 0.0942005428 0.6928285955 0.2405257598 0.1701797129 0.6649055355 0.2165554673 0.2670799519 0.4534392494 0.3147833686 0.2769155335 0.5523357212 0.4237453777 0.2891474249 0.5510803902 0.4221256068 0.3017596251 0.4615652901 0.3881655581 0.2930441354 0.5670017640 0.4248138917 0.3034864857 0.5648838922 0.4232588969 0.3168211125 0.4606898523 0.2504084125 0.1316785566 0.7746812788 0.3853759634 0.2817857993 0.7877863715 0.2300432391 0.4355558507 0.5331467444 0.3842907401 0.4425121995 0.5442483619 0.3884047203 0.2596647401 0.8884696221 0.3479759402 0.3858837111 0.8389884646 0.4218673648 0.4033215250 0.8557762303 0.4205094980 0.4559408082 0.9120416216 0.2477531001 0.7540593126 0.3376078647 0.4884503728 0.7666261759 0.3340780353 0.4840918117 0.6636776946 0.0741343588 0.1650175806 0.5429897701 0.0931829238 0.2889680699 0.6668139022 0.9106889963 0.3238786160 0.7181427672 0.2395837937 0.2403132957 0.7009473674 0.1581319430 0.3948800738 0.7725680294 0.3763505900 0.3029379673 0.7795700701 0.3840842446 0.3112612573 0.5765816834 0.3180573475 0.2732813903 0.5430323117 0.2332381956 0.4092481201 0.4896876918 0.2665620492 0.3099977073 0.4823061115 0.3245202553 0.4678558383 0.4697175426 0.3328035781 0.4698154240 0.3971022921 0.4126838301 0.4109548588 0.5943442494 0.5926361105 0.5284554060 0.2117254903 0.4443731243 0.0238540769 0.2004300016 0.4402475571 0.0279827839 0.1280994161 0.4507150032 0.0930840359 0.1267668683 0.4654159723 0.1031878876 0.1175847076 0.4783804012 0.1082876479 0.1185134497 0.4880295999 0.1156594276 0.1110446700 0.4972694595 0.1189399176 0.1129374144 0.5046629340 0.1250511731 0.1038419348 0.5057346939 0.1217728108 0.1061448075 0.5124985178 0.1276756004 0.1085023465 0.5187117859 0.1330946889 0.0992975984 0.5202756664 0.1302084203 0.1019039731 0.5262202635 0.1356038053 0.0950230575 0.5341676204 0.1382762422 0.0976908619 0.5398196618 0.1434385450 0.0903912105 0.5487852876 0.1466850692 0.1316328776 0.6112699190 0.0496719856 0.1204144992 0.6102084677 0.0509029752 0.1362248789 0.6159568464 0.0513407670 0.1255281257 0.6151342597 0.0524235510 0.1136218505 0.6146036997 0.0540675196 0.1302396601 0.6200454151 0.0540581237 0.1189070732 0.6198137382 0.0555395547 0.0845167806 0.5660705501 0.1564359302 0.1061676827 0.6200389212 0.0576138249 0.1237108580 0.6250799799 0.0570758630 0.1116101446 0.6256107462 0.0590450267 0.1164877865 0.6313196816 0.0606636348 0.0820182144 0.6706673757 0.1810258151 0.1438031102 0.3989743713 0.2125566065 0.2479605657 0.3072109026 0.1910941851 0.2422704056 0.2989472577 0.1909487077 0.2544836851 0.3074963637 0.1923990602 0.2349451787 0.2934160167 0.1901302284 0.2490798273 0.2978800628 0.1924896137 0.2606790474 0.3096039171 0.1934120283 0.2553469103 0.2983064854 0.1937231864 0.2668262069 0.3136642556 0.1941729253 0.2732385506 0.3200793913 0.1947002473 0.2803322106 0.3296544551 0.1949926548 0.0666270799 0.3282030307 0.2125372780 0.2878923472 0.3275499824 0.1967989290 0.2811321921 0.3285252559 0.2817900039 0.2897297094 0.3358232940 0.2822897500 0.0806538895 0.2546573473 0.2411193136 0.0625412264 0.1773944732 0.1955356118 0.0770268311 0.1532706992 0.1992750447 0.1182405127 0.0716632556 0.2666250820 0.1342871055 0.0638608113 0.2775199295 0.2574783598 0.1383373049 0.3074834504 0.2735488023 0.1567398246 0.3087994215 0.2810704946 0.1662975955 0.3093227682 0.2894031022 0.1706535000 0.3104915877 0.8769439303 0.1814981707 0.3928502284 0.8416665918 0.1012745461 0.3660706194 0.7543636242 0.1430841662 0.5519777802 0.2887983740 0.2667699479 0.4713138024 0.2980681438 0.2683299569 0.4698189216 0.2958603032 0.2666229876 0.3825289752 0.2993373484 0.2670773437 0.3852765381 0.2989722850 0.2700583272 0.3804394386 0.2623584409 0.3460543877 0.3383246409 0.3205366350 0.3799336383 0.3965033047 0.6463556983 0.7344806749 0.4810912292 0.7736313116 0.7077779609 0.4070975404 0.7276832050 0.7731914243 0.3428530658 0.7350902777 0.7733335149 0.3418516990 0.7344456790 0.7797617728 0.3453701524 0.6098335446 0.5228300761 0.2186252270 0.6108912795 0.5423177030 0.2241249698 0.6250803982 0.5493021482 0.0478091379 0.6450349590 0.5610203063 0.0472416592 0.7506416064 0.6625194856 0.2145011631 0.8261705575 0.4728130662 0.2019513009 0.8341536067 0.4829215756 0.2045854295 0.7617386096 0.6647277967 0.2156974553 0.8419937522 0.4927455829 0.2070195828 0.7601209547 0.7406405351 0.0742977409 0.7738074632 0.6672709470 0.2169070238 0.7876564767 0.6704266106 0.2181482670 0.8110496452 0.7658255063 0.1252710380 0.9289175471 0.5570957425 0.1497382789 0.9040617789 0.6348907820 0.0542371159 0.9362986872 0.6747946869 0.2285091155 0.9219609987 0.7235229161 0.1944342243 0.9492268760 0.6677898611 0.2226615187 0.3978893513 0.1701599488 0.3849128138 0.3430262226 0.0823702588 0.4348462325 0.1791519794 0.1854282684 0.3562600058 0.2252750305 0.1306720181 0.4248139630 0.1481590124 0.0883634562 0.3913556816 0.1488892553 0.0952293708 0.3779650980 0.9417285067 0.4426501564 0.5389705520 0.2928877181 0.1282385764 0.0935315014 0.2963387439 0.1231601222 0.0944212010 0.3228994094 0.0836849324 0.0768586525 0.3309960438 0.0820620640 0.0803016561 0.3640646263 0.1758476913 0.0640353206 0.3673361563 0.1736727047 0.0663117563 0.3326884540 0.2070178600 0.1221876464 0.3407134180 0.2123267326 0.1265013606 0.0738677358 0.1546486624 0.4733105565 0.0705690756 0.1607227872 0.4706653157 0.4684850544 0.4869233632 0.1324374298 0.4638307863 0.4773357054 0.1325099968 0.5330838712 0.3955438528 0.2307944271 0.8768610258 0.5661606946 0.0050607784 0.8831851582 0.5643493693 0.0029319465 0.7761162112 0.0752736231 0.2394671615 0.7375314239 0.0954175248 0.2604758438 0.7300235508 0.0975129801 0.2588114905 0.8411975073 0.1220424902 0.2762546475 0.8479368070 0.1353507337 0.2818386807 0.7750100856 0.1898859976 0.1599540517 0.7791142564 0.1936447837 0.1627590522 0.3532139900 0.1879949805 0.4992988241 0.8780714584 0.6070924788 0.3603316400 0.9098202783 0.4746077546 0.3235936708 0.9120626632 0.4693803371 0.3203861458 0.9058155337 0.4674992392 0.3212014294 0.9103694548 0.3773655504 0.2488318333 0.3505434201 0.9167229083 0.0416515048 0.3555069999 0.9095680334 0.0459600281 0.3131628838 0.8318788329 0.0641728774 0.8120099649 0.6570494507 0.3217517127 0.6858011158 0.6179297629 0.3025187998 0.1300691267 0.8998270104 0.4147586865 0.1380874522 0.9021732119 0.4171650328 0.1467782415 0.9002817658 0.4247638139 0.1527921322 0.9027319808 0.4258504182 0.1295294077 0.9175292238 0.2092374550 0.1319493190 0.9170674576 0.2168216035 0.2226944547 0.2822426430 0.0338767750 0.3488487926 0.2714050240 0.0225674333 0.2060475678 0.4215033332 0.3016570897 0.3274523007 0.4048088460 0.3586385558 0.1470743449 0.2216859878 0.3528892102 0.1015974971 0.2912236175 0.2641272492 0.0933456109 0.2808359215 0.2684212955 0.2256307692 0.9248638106 0.4134213627 0.2155292980 0.9471740084 0.2274035203 0.5217131684 0.1886318594 0.4834464518 0.4568983961 0.1885232978 0.3945000984 0.5565161798 0.9291726425 0.2546472692 0.9350444892 0.1542094188 0.2257275725 0.9396979469 0.1614770190 0.2676503073 0.9163794050 0.3097053378 0.3062286713 0.9293857516 0.3872354196 0.3203604498 0.5920927536 0.7406697814 0.4672411511 0.4793059071 0.8148680468 0.4749176551 0.1311313059 0.8187650801 0.4137965123 0.1285273724 0.8168683219 0.4137122882 0.1323739817 0.8155336712 0.4167268851 0.1256515075 0.8151022391 0.4133758837 0.1299130571 0.8138030390 0.4166020357 0.2475132524 0.8771782274 0.4488337686 0.3748471513 0.8074364114 0.1032681185 0.4067417809 0.9341639228 0.1577949169 0.4214954607 0.9338627144 0.1553552037 0.4107826736 0.9084563011 0.1261105640 0.1573688509 0.0909637192 0.0687924469 0.1512678460 0.0896271694 0.0703616383 0.1455674792 0.0933185450 0.0682790550 0.1083942487 0.2219926177 0.0457818798 0.8129515581 0.9037025826 0.2345940143 0.8413751639 0.8985109866 0.3356589206 0.8360961075 0.8774587778 0.3361960735 0.1566301578 0.3263281860 0.5256068365 0.8273193856 0.6757712701 0.4023179802 0.8317862830 0.6800524677 0.4018760261 0.9038827942 0.3747995012 0.3531590051 0.0735955642 0.1027685762 0.4374995019 0.1209013827 0.2226728727 0.3618533118 0.8833365941 0.1881956480 0.3311061666 0.8740448852 0.1927536029 0.3301784648 0.8763924292 0.0322724186 0.2759144232 0.8701781769 0.0258736771 0.2798413051 0.8506516175 0.0244211652 0.3188741511 0.8430190897 0.0285139482 0.3241942150 0.3980763021 0.1417002568 0.0193212114 0.4276232861 0.3191243513 0.0729009719 0.8327660010 0.8781263106 0.1217951895 0.8348880556 0.8811107170 0.1244471754 0.8289585807 0.8809734947 0.1236340442 0.8310166292 0.8839552800 0.1262449614 0.8272165258 0.8867472728 0.1280290293 0.8292001478 0.8899570611 0.1308059568 0.8234006054 0.8896341796 0.1299041343 0.8252227534 0.8930326697 0.1327791368 0.8194672028 0.8927896918 0.1319958314 0.8210761152 0.8964935363 0.1350570572 0.8165756333 0.9006760401 0.1378683637 0.5202322012 0.0929688783 0.5518632018 0.1120125058 0.2094767495 0.0787873083 0.0853949158 0.6627286650 0.4788000222 0.9120413042 0.1425824730 0.0722326587 0.9118182246 0.1205102282 0.0527111799 0.9114768014 0.1276680588 0.0589617528 0.6369944003 0.0605616961 0.3621134368 0.6245531118 0.0596563739 0.3594594188 0.5522064891 0.0785269357 0.3208171782 0.9305327368 0.2765181725 0.0852076734 0.3434414287 0.4909192069 0.0072383115 0.2084432889 0.6380277260 0.0325121650 0.3346803893 0.6640438207 0.1079249558 0.5220637378 0.4830220381 0.0307932944 0.0992245491 0.3625314603 0.3407840026 0.0895938101 0.3478284319 0.4112898198 0.0944842572 0.3427627182 0.4104914957 0.1043784400 0.3531867731 0.3437154661 0.2938549478 0.8678599786 0.4383393922 0.3079468288 0.8793683348 0.4410407310 0.3836239356 0.0834495664 0.4561821178 0.3191391824 0.0698357563 0.4994120045 0.0787153536 0.4100670134 0.2375321075 0.1044108862 0.4619342862 0.1946331401 0.1096720851 0.4597615219 0.1939658003 0.1031818566 0.4573735010 0.1914698618 0.4857501363 0.9140799751 0.1558894280
        </DataArray>
      </Points>
      <Cells>
        <DataArray type="Int32" Name="connectivity" format="ascii">
 0 1 2 3 4 5 6 7 8 9 10 11 12 13 14 15 16 17 18 19 20 21 22 23 24 25 26 27 28 29 30 31 32 33 34 35 36 37 38 39 40 41 42 43 44 45 46 47 48 49 50 51 52 53 54 55 56 57 58 59 60 61 62 63 64 65 66 67 68 69 70 71 72 73 74 75 76 77 78 79 80 81 82 83 84 85 86 87 88 89 90 91 92 93 94 95 96 97 98 99 100 101 102 103 104 105 106 107 108 109 110 111 112 113 114 115 116 117 118 119 120 121 122 123 124 125 126 127 128 129 130 131 132 133 134 135 136 137 138 139 140 141 142 143 144 145 146 147 148 149 150 151 152 153 154 155 156 157 158 159 160 161 162 163 164 165 166 167 168 169 170 171 172 173 174 175 176 177 178 179 180 181 182 183 184 185 186 187 188 189 190 191 192 193 194 195 196 197 198 199 200 201 202 203 204 205 206 207 208 209 210 211 212 213 214 215 216 217 218 219 220 221 222 223 224 225 226 227 228 229 230 231 232 233 234 235 236 237 238 239 240 241 242 243 244 245 246 247 248 249 250 251 252 253 254 255 256 257 258 259 260 261 262 263 264 265 266 267 268 269 270 271 272 273 274 275 276 277 278 279 280 281 282 283 284 285 286 287 288 289 290 291 292 293 294 295 296 297 298 299 300 301 302 303 304 305
        </DataArray>
        <DataArray type="Int32" Name="offsets" format="ascii">
 1 2 3 4 5 6 7 8 9 10 11 12 13 14 15 16 17 18 19 20 21 22 23 24 25 26 27 28 29 30 31 32 33 34 35 36 37 38 39 40 41 42 43 44 45 46 47 48 49 50 51 52 53 54 55 56 57 58 59 60 61 62 63 64 65 66 67 68 69 70 71 72 73 74 75 76 77 78 79 80 81 82 83 84 85 86 87 88 89 90 91 92 93 94 95 96 97 98 99 100 101 102 103 104 105 106 107 108 109 110 111 112 113 114 115 116 117 118 119 120 121 122 123 124 125 126 127 128 129 130 131 132 133 134 135 136 137 138 139 140 141 142 143 144 145 146 147 148 149 150 151 152 153 154 155 156 157 158 159 160 161 162 163 164 165 166 167 168 169 170 171 172 173 174 175 176 177 178 179 180 181 182 183 184 185 186 187 188 189 190 191 192 193 194 195 196 197 198 199 200 201 202 203 204 205 206 207 208 209 210 211 212 213 214 215 216 217 218 219 220 221 222 223 224 225 226 227 228 229 230 231 232 233 234 235 236 237 238 239 240 241 242 243 244 245 246 247 248 249 250 251 252 253 254 255 256 257 258 259 260 261 262 263 264 265 266 267 268 269 270 271 272 273 274 275 276 277 278 279 280 281 282 283 284 285 286 287 288 289 290 291 292 293 294 295 296 297 298 299 300 301 302 303 304 305 306
        </DataArray>
        <DataArray type="UInt8" Name="types" format="ascii">
 1 1 1 1 1 1 1 1 1 1 1 1 1 1 1 1 1 1 1 1 1 1 1 1 1 1 1 1 1 1 1 1 1 1 1 1 1 1 1 1 1 1 1 1 1 1 1 1 1 1 1 1 1 1 1 1 1 1 1 1 1 1 1 1 1 1 1 1 1 1 1 1 1 1 1 1 1 1 1 1 1 1 1 1 1 1 1 1 1 1 1 1 1 1 1 1 1 1 1 1 1 1 1 1 1 1 1 1 1 1 1 1 1 1 1 1 1 1 1 1 1 1 1 1 1 1 1 1 1 1 1 1 1 1 1 1 1 1 1 1 1 1 1 1 1 1 1 1 1 1 1 1 1 1 1 1 1 1 1 1 1 1 1 1 1 1 1 1 1 1 1 1 1 1 1 1 1 1 1 1 1 1 1 1 1 1 1 1 1 1 1 1 1 1 1 1 1 1 1 1 1 1 1 1 1 1 1 1 1 1 1 1 1 1 1 1 1 1 1 1 1 1 1 1 1 1 1 1 1 1 1 1 1 1 1 1 1 1 1 1 1 1 1 1 1 1 1 1 1 1 1 1 1 1 1 1 1 1 1 1 1 1 1 1 1 1 1 1 1 1 1 1 1 1 1 1 1 1 1 1 1 1 1 1 1 1 1 1 1 1 1 1 1 1 1 1 1 1 1 1 1 1 1 1 1 1
        </DataArray>
      </Cells>
      <PointData Scalars="overlap">
        <DataArray type="Float32" Name="overlap" format="ascii">
 0.0002285895 0.0000002481 0.0001825218 0.0000071652 0.0000776685 0.0000228685 0.0000035758 0.0000280244 0.0002242921 0.0002628482 0.0001071335 0.0000272245 0.0002594813 0.0000250078 0.0002250911 0.0000652385 0.0002617523 0.0001354870 0.0001131363 0.0001797943 0.0001535395 0.0001504617 0.0000804038 0.0000556209 0.0003552806 0.0004961365 0.0001940898 0.0003387512 0.0002610870 0.0006863241 0.0001441227 0.0003017762 0.0002985532 0.0000453027 0.0000226272 0.0000765000 0.0000628089 0.0001729283 0.0000044628 0.0001937762 0.0000621691 0.0000353293 0.0000648476 0.0000926597 0.0001521614 0.0000301535 0.0000322349 0.0001893166 0.0000507405 0.0000457684 0.0001592848 0.0000694857 0.0000620175 0.0005173845 0.0000330574 0.0004302328 0.0000327784 0.0001190582 0.0000267251 0.0000284349 0.0000017081 0.0000254384 0.0002334420 0.0003068231 0.0000156596 0.0001447797 0.0000367563 0.0001195931 0.0002020437 0.0000085388 0.0002912685 0.0002323428 0.0000508331 0.0000113699 0.0000478761 0.0000351268 0.0001372397 0.0000042265 0.0000278698 0.0002680924 0.0000860124 0.0000633246 0.0000875348 0.0000326677 0.0000325824 0.0000633153 0.0000146015 0.0000127001 0.0001263692 0.0001123952 0.0000594332 0.0001420088 0.0001019888 0.0001506156 0.0000726199 0.0000551210 0.0001362788 0.0000012320 0.0000902422 0.0000976892 0.0000958303 0.0000346366 0.0000718996 0.0001705673 0.0004060228 0.0000986584 0.0005667165 0.0005328179 0.0004754834 0.0006855946 0.0000166482 0.0001320259 0.0003694008 0.0002706648 0.0000096470 0.0000918545 0.0000349411 0.0000518325 0.0000402619 0.0000732381 0.0000180504 0.0000356760 0.0000857444 0.0000025075 0.0000994160 0.0001108529 0.0000930507 0.0000668391 0.0001089888 0.0000157107 0.0000329407 0.0000273330 0.0000116603 0.0000620657 0.0000328861 0.0000131434 0.0000251370 0.0001037160 0.0000473808 0.0000212561 0.0000273648 0.0000485995 0.0002820760 0.0000744156 0.0001699563 0.0000450742 0.0000527479 0.0000740509 0.0001897875 0.0000209404 0.0000774763 0.0000415420 0.0000075769 0.0000083287 0.0000378127 0.0000095887 0.0000079321 0.0001234419 0.0000256385 0.0000063461 0.0000632199 0.0001875675 0.0000165748 0.0001207339 0.0003097427 0.0000256668 0.0000249819 0.0001342466 0.0000229782 0.0002093992 0.0000108482 0.0000676353 0.0000337182 0.0000421823 0.0000209777 0.0000350949 0.0000202919 0.0000602508 0.0000068263 0.0000167959 0.0000223325 0.0000876811 0.0000295319 0.0000772997 0.0000055818 0.0000304155 0.0000110707 0.0000227120 0.0000650195 0.0000095917 0.0000426498 0.0000358887 0.0000018978 0.0000828227 0.0000157605 0.0000384832 0.0000261872 0.0000677854 0.0000698171 0.0000396989 0.0002340297 0.0000573710 0.0000653369 0.0000427563 0.0000029286 0.0000128448 0.0000320400 0.0000611923 0.0000385826 0.0000731837 0.0000155234 0.0001015630 0.0000004773 0.0000259735 0.0000547370 0.0000049125 0.0000218314 0.0000038252 0.0000351868 0.0000128229 0.0000867529 0.0000316012 0.0000121947 0.0000775819 0.0000052349 0.0000257977 0.0000423168 0.0000349903 0.0000679041 0.0000261763 0.0000133414 0.0000516704 0.0000025043 0.0000194526 0.0000181082 0.0000288429 0.0000767195 0.0000372301 0.0000428729 0.0000429822 0.0000181934 0.0000256158 0.0001205767 0.0000062457 0.0000456766 0.0000869126 0.0000106616 0.0000396991 0.0001845313 0.0002250332 0.0000295592 0.0000527284 0.0000228185 0.0000490787 0.0000465558 0.0000035045 0.0000049371 0.0000235167 0.0000464440 0.0000174221 0.0000177726 0.0000305596 0.0000054964 0.0000147549 0.0000027336 0.0000553387 0.0000082608 0.0000239062 0.0000094064 0.0000033028 0.0000065568 0.0000524897 0.0000684438 0.0000430261 0.0000521693 0.0000742311 0.0000062441 0.0000728111 0.0000166111 0.0000358743 0.0000025010 0.0000645965 0.0000156475 0.0000176472 0.0000120726 0.0000135042 0.0000281416 0.0000463141 0.0000239565 0.0000236918 0.0003229922 0.0000182279 0.0000039484 0.0000660530 0.0000200656 0.0001171984 0.0000634725 0.0000194636 0.0000168555 0.0000229579 0.0000507270 0.0000273911 0.0000139613 0.0001098301 0.0001272791 0.0001007111
        </DataArray>
        <DataArray type="Float32" Name="contact normal" NumberOfComponents="3" format="ascii">