<?xml version="1.0"?>
<VTKFile type="UnstructuredGrid" version="0.1" byte_order="LittleEndian">
  <UnstructuredGrid>
    <FieldData>
      <DataArray type="Float32" Name="TIME"  NumberOfTuples="1" format="ascii"> 2.3500000000 </DataArray>
      <DataArray type="Int32"   Name="STEP"  NumberOfTuples="1" format="ascii"> 235000 </DataArray>
    </FieldData>
    <Piece NumberOfPoints="285" NumberOfCells="285">
      <Points>
        <DataArray type="Float32" NumberOfComponents="3" format="ascii">
 8.0668859900 0.1521068028 -9.3189343539 8.0938055015 0.1002585338 -9.4415735713 8.2009298656 0.0988415418 -9.3425805220 8.2140813128 0.0946370345 -9.4992560182 8.2335286910 0.3154276687 -9.3117662141 8.2433948975 0.3122478513 -9.3222448737 8.2385596174 0.4025182246 -9.3220947176 8.3004676474 0.1819248981 -9.5584757414 8.3074421442 0.1893922595 -9.5598559334 8.2762704848 0.4343845105 -9.4239160077 8.2796519898 0.4375115021 -9.4387129502 8.3253236026 0.2563135395 -9.6429625110 8.2205276077 0.3887096652 -9.5963882334 8.2281700584 0.3883726683 -9.6081737882 8.2442161303 0.4070657279 -9.6194550030 8.3905934839 0.3962895826 -9.5123870900 8.3996907881 0.3906081106 -9.5241555554 8.3965525279 0.3928538086 -9.6218892013 8.7411526496 0.2630594631 -9.2535524656 8.6682849807 0.3253792280 -9.3229014584 8.6668672692 0.3220013494 -9.3318381184 8.7288145194 0.5345547921 -9.3914859878 8.7255845103 0.5283516182 -9.4126088561 8.7239828402 0.3128918843 -9.4693652049 8.7224403913 0.3272802811 -9.4756299721 8.6596037096 0.4957877464 -9.5087555461 8.6568164669 0.4752986950 -9.4952804979 7.9166258976 0.6926862722 -9.0549765983 7.9190830883 0.6846342163 -9.0622696563 7.9295396468 0.6866508921 -9.0625522757 7.8881377114 0.7629238680 -8.8825068920 7.8983236870 0.7651124040 -8.8870658268 7.8884061999 0.7628974779 -8.8706486251 7.8991637984 0.7653442164 -8.8759493189 7.9153585047 0.6022520531 -8.9748526477 7.9262145592 0.6546102216 -8.8399365178 7.9332536816 0.6498120034 -8.8449590790 8.0305030117 0.6949439756 -8.9199512511 8.2773116911 0.7035553832 -9.2272600306 8.3511736885 0.7211539248 -9.3138415777 8.2499288910 0.7066603571 -9.3432613355 8.2528133691 0.7112506241 -9.3469475628 8.2469814778 0.7129703117 -9.3487440340 8.1265688493 0.7107992447 -9.2626277289 8.3399514161 0.8323247459 -9.3540973791 8.2006144810 0.7967913078 -9.2407831528 8.1943345910 0.7979917842 -9.2447135070 8.2021513470 0.8028134875 -9.2460116872 8.1962890708 0.8043319575 -9.2503427420 8.1907610860 0.8065127254 -9.2553934940 8.2351163119 0.3349569441 -8.8548985485 8.0480407515 0.5208041202 -8.8942811787 8.2946137534 0.4191512433 -8.9140513877 8.2999681450 0.4205560828 -8.9251500325 8.2814836817 0.3389862373 -8.9734182530 8.3038105513 0.4366179744 -8.9233643336 8.3082733494 0.4368133488 -8.9331617739 8.1745929424 0.3540197115 -9.0602687770 8.1755872872 0.6102284774 -8.7678821910 8.1273968546 0.6677361394 -8.9709714733 8.3491084273 0.4361432881 -9.0684392829 8.3559799950 0.4479846783 -9.0694313253 8.3431203278 0.7208201401 -8.9405292771 8.3508848891 0.7408203550 -8.9518195549 8.2333610030 0.8224215920 -9.0755400810 8.4562821955 0.6972392000 -9.1043842239 8.6175237383 0.3004179111 -9.3128420057 8.6207692013 0.2999786460 -9.3262046315 8.5690131616 0.1206902172 -9.2042097905 8.6073226457 0.1517517241 -9.3350891720 8.2998218025 0.0479757978 -9.4756196023 8.3939092434 0.2211222968 -9.4404431876 8.5162359094 0.1236173202 -9.3607676113 8.4715418178 0.3595058184 -9.4203772842 8.3410937526 0.2657724414 -9.2904583895 8.4390114687 0.1634503024 -9.2083404036 8.3257266969 0.1944895741 -9.2115042511 8.5548056236 0.5128664202 -9.1058114507 7.9276101569 0.3377055654 -9.1007770073 7.9250072894 0.3309707735 -9.0903261736 7.9394312398 0.3205285879 -8.9940212696 7.9466354875 0.3336708193 -8.9842567707 7.9454377477 0.3439717531 -8.9711865856 7.9517691165 0.3528981267 -8.9658450709 7.9501161310 0.3600817453 -8.9559675085 7.9559995716 0.3671182236 -8.9525839442 7.9542156354 0.3731317864 -8.9439202859 7.9580525484 0.3849199993 -8.9331758134 7.9562457069 0.3910328484 -8.9243998382 7.8995811879 0.4819005155 -8.9851963077 7.8982818529 0.4842535561 -8.9779401038 7.9020874034 0.4898244866 -8.9797967042 7.9801983300 0.5175613079 -8.8607408500 7.9736204205 0.5268227918 -8.8668758191 8.0504891779 0.2621351291 -8.9539250568 8.0927379581 0.1958579108 -9.0703485446 8.0897827761 0.1866606548 -9.0676348253 8.0973924143 0.1973401398 -9.0748733885 8.0852755291 0.1798570914 -9.0633546755 8.0948378004 0.1868606487 -9.0725631303 8.1015607840 0.2005589404 -9.0788876593 8.1054250188 0.2056947951 -9.0825678138 8.1091584522 0.2132015027 -9.0860693818 8.1129603035 0.2239485054 -9.0895529507 8.0106346150 0.1774747290 -8.9069305630 8.1186840430 0.2232652986 -9.0951760272 8.1859996133 0.2149243225 -9.0435038866 8.1908675707 0.2237373861 -9.0486089402 8.1979339436 0.2217244373 -9.0543846334 8.0447158902 0.1059720008 -8.9191277066 7.9993449654 0.0312336038 -8.9461339406 8.0112189949 0.0103071672 -8.9611930884 8.0929123204 -0.0671324724 -8.9762386292 8.2010464827 0.0223486274 -9.0524213356 8.2103148045 0.0434285865 -9.0606902363 8.2145398526 0.0542243865 -9.0644051060 8.2199324573 0.0600543511 -9.0695727020 8.6133694028 0.1855204902 -9.4986240337 8.6854237374 0.1090899694 -9.3336436216 8.2703897432 0.1404086868 -9.0077854117 8.2673942102 0.1874829486 -8.9411986893 8.2745764524 0.1410317904 -9.0088901260 8.3078802294 0.2609904673 -8.9923483696 8.5376932643 0.6658318217 -9.1425760834 8.5457820100 0.6795713216 -9.1376231101 8.4568332107 0.6068108192 -9.2890620208 8.5514842249 0.6690908634 -9.2869933124 8.5474068208 0.6723055172 -9.2916988788 8.5507023169 0.6785751006 -9.2897081487 8.4706421389 0.7387824503 -9.2781813517 8.2351276185 0.4664340978 -9.2852831713 8.3066125868 0.4767718166 -9.3016379306 8.3111535579 0.4955245687 -9.2952260134 8.3179111519 0.4901235636 -9.3076440278 8.1711803733 0.5216491222 -9.4003647687 8.1743180470 0.5375219502 -9.4021030159 8.1812646140 0.5371754619 -9.4142606335 8.3754511496 0.6419691092 -9.3873173415 8.4126977918 0.4736093363 -9.4973969249 8.4189193430 0.4848408269 -9.5002242799 8.3824432689 0.6462659305 -9.3951976157 8.4249052766 0.4957846751 -9.5031062495 8.3899662971 0.6510853727 -9.4037862538 8.2660672629 0.7332919403 -9.4643794601 8.3984679755 0.6568606231 -9.4136686265 8.3303135980 0.7633051709 -9.4617041397 8.3165415411 0.6462056415 -9.5916807897 8.4223013404 0.5815423730 -9.5903576513 8.3262349067 0.6612193572 -9.6045171453 8.4882030731 0.6904139691 -9.5278043093 8.3412947096 0.0748503553 -9.1174189209 8.3560846429 -0.0265634523 -9.0653939193 8.1972488050 0.0477772823 -8.9518598911 8.2129929481 -0.0564045265 -8.9292599112 8.7583513526 0.4362306122 -9.4155408750 8.0437010660 0.0360772949 -9.2020543157 8.0396352880 0.0060853588 -9.2455783483 8.0495459790 0.0359594531 -9.2037325229 8.0529348231 0.0035338315 -9.2461443515 8.0417354504 0.1002307504 -9.2603834339 8.0449919712 0.0982884793 -9.2622013796 8.0482643006 0.0963734180 -9.2639595591 8.0484469392 0.1014438793 -9.2614918768 8.0518146485 0.0995481196 -9.2632841185 8.0522118996 0.1047372454 -9.2607984632 8.0557565015 0.1028875513 -9.2626529931 8.0848715101 0.1221846475 -9.1985084494 8.0928396334 0.1284478978 -9.2014336170 7.9236937301 0.7806698467 -8.7953815150 8.2797633387 0.3321221787 -9.2570673440 8.2790815700 0.5902423877 -9.6305093632 8.2722247880 0.5935020780 -9.6241044984 8.4303765722 0.0725942972 -9.5239477248 8.4164614788 0.0770322460 -9.4756395624 8.4261036357 0.0823955954 -9.4768247602 8.4205240943 0.0830646530 -9.4711717275 8.4951292824 0.1280302024 -9.5465280178 8.5030176981 0.1418581740 -9.5460332652 8.3592427256 0.1914132035 -9.5406988093 8.3637024150 0.1956542912 -9.5416811034 8.4125812972 0.0721603233 -9.0127831066 8.4118565950 0.0740854138 -9.0220762201 8.4628695308 0.1791189127 -9.0320741898 8.5827985736 0.6164308744 -9.5187603081 8.5688020186 0.6005510452 -9.4241961713 8.5600454784 0.4812204234 -9.4989244021 8.5587868301 0.4768525135 -9.5036482921 8.5561051815 0.4736770722 -9.4985473815 8.5120726232 0.4080579166 -9.5630661290 8.7070124508 0.0483309931 -9.3936359544 7.9404366888 0.7360770629 -9.1884984360 7.9499715345 0.7316134289 -9.1919055447 7.9395894572 0.7240349216 -9.1917319012 8.4987706086 0.6394370121 -9.3804232724 8.4213540530 0.5745426342 -9.3047629614 8.4150662941 0.5773788849 -9.2969251486 8.0219324028 0.7649577045 -8.8296180938 8.0296113153 0.7642938501 -8.8275728185 7.9481705826 0.1810616787 -9.1401402264 8.0078308820 0.1970800278 -9.2512023180 8.1476167173 0.0332078335 -8.8962737981 8.4001906436 -0.0469522339 -9.1504769230 8.3969089787 -0.0545883018 -9.1556563416 8.3488121692 -0.0063378766 -9.1853968988 8.3996506332 0.0028224865 -9.2930389683 8.4350148090 -0.0145037696 -9.2851432384 8.2450497459 0.7727036952 -8.7958835690 8.0830209406 0.8098141674 -8.8829351998 8.4764551576 0.1705853601 -9.1229214312 8.4935270398 0.1073595224 -9.1717816325 8.4896831104 0.1025625820 -9.1672737186 8.3811957980 0.1036543270 -9.1559801424 8.2707584229 0.0973909216 -9.5891936751 8.2689717466 0.0925819020 -9.5940106009 8.0878119171 0.7639871425 -9.3032300002 8.0306167025 0.8622334123 -9.2700465886 8.4391119472 0.7114785299 -8.9925934248 8.4486929540 0.7052066387 -8.9162630068 8.4519662756 0.7355476404 -8.9199869030 8.5311401988 0.1612268568 -9.6684895908 8.0712943458 0.7173641325 -9.1105766616 8.1300774913 0.8422538789 -9.0790501483 8.1361368241 0.8451795553 -9.0924110723 8.1066800693 0.8209390421 -9.1050643290 7.8976512566 0.0980768299 -9.0543176176 7.9520708024 0.0373140943 -9.1482677466 8.2874230332 0.8891052241 -9.5129780923 8.4179160278 0.8879922796 -9.3737047649 8.5181123087 0.8793080302 -9.3432575593 8.4119953432 0.8894623725 -9.3632547665 8.5163817985 0.8576665802 -9.3433217458 8.5738958979 0.6533188971 -9.3451911536 8.5758176067 0.6584304912 -9.3481332824 8.5715416533 0.6614800952 -9.3503404652 8.5850337923 0.3799042627 -9.5001224748 8.1684772781 0.0718252007 -8.8934198278 8.4568655212 0.0409523319 -9.4152653457 8.4573346464 0.0363171419 -9.4226633472 8.5616520977 0.1959546015 -9.5365189903 8.5173458058 0.0475800024 -9.5950891518 8.5393904129 0.0307871177 -9.5526568516 8.5395117670 0.0327143334 -9.5426730827 8.0368556013 0.0810914422 -9.3214991019 8.0919368661 0.2549084500 -9.2771252355 8.4101570118 0.8574231264 -9.4902591774 8.4098939837 0.8659155303 -9.4888435123 8.3379369112 0.8824751474 -9.4512578858 8.3372485767 0.8842611041 -9.4465936044 8.3399042623 0.8895464734 -9.4410217295 8.3394152240 0.8918686831 -9.4356617585 8.5063403588 0.0057102314 -9.2295148219 7.9275739284 0.0835402179 -9.0422307097 8.3685918903 0.3887864566 -8.8578919135 8.2298056198 0.4823884340 -8.7033251377 8.1147958394 0.5023775596 -9.3935900354 8.1223072054 0.4960736382 -9.3985196704 8.3260238737 0.1358605901 -9.7429599769 8.3346577872 0.1462692870 -9.7357069047 8.3371941112 0.1509337372 -9.7303847312 8.3399693196 0.1547689448 -9.7270573229 8.3431518292 0.1581232775 -9.7253056206 8.3469674632 0.1612224661 -9.7250213867 8.4572053686 0.0186390964 -9.3479010765 8.4482182069 0.0154631493 -9.3394296543 8.4750282096 0.0269023394 -9.3613804729 8.3756172205 0.0227229278 -9.2974374760 8.3858852827 0.3139465105 -9.7014694952 7.9830061758 0.4107964793 -9.2083169939 7.9273270462 0.5250754081 -9.0507368083 7.9191143321 0.5122267588 -9.0523126651 8.0586775695 0.5688477179 -9.1069343709 8.3461630062 0.4176325554 -9.7408622623 8.0770191070 0.6512702441 -9.1560069908 8.0795068253 0.6481364010 -9.1580915293 8.1025370107 0.4370875677 -9.3407436599 8.1902232314 0.1821405626 -8.8150626349 8.1370443430 0.1968611236 -8.8547900618 8.3149010294 0.7005716636 -8.8544060987 8.3962293393 -0.0193016518 -9.0863193970 8.0352488284 0.2574400962 -8.8851191417 8.0140054646 0.3163246560 -8.9228062087 8.0084466122 0.3129207697 -8.9194100206 8.4930943794 -0.0581982165 -9.2165312069 8.1785675715 0.8452075254 -9.1499671215 8.1724169375 0.8386327737 -9.1484990839
        </DataArray>
      </Points>
      <Cells>
        <DataArray type="Int32" Name="connectivity" format="ascii">
 0 1 2 3 4 5 6 7 8 9 10 11 12 13 14 15 16 17 18 19 20 21 22 23 24 25 26 27 28 29 30 31 32 33 34 35 36 37 38 39 40 41 42 43 44 45 46 47 48 49 50 51 52 53 54 55 56 57 58 59 60 61 62 63 64 65 66 67 68 69 70 71 72 73 74 75 76 77 78 79 80 81 82 83 84 85 86 87 88 89 90 91 92 93 94 95 96 97 98 99 100 101 102 103 104 105 106 107 108 109 110 111 112 113 114 115 116 117 118 119 120 121 122 123 124 125 126 127 128 129 130 131 132 133 134 135 136 137 138 139 140 141 142 143 144 145 146 147 148 149 150 151 152 153 154 155 156 157 158 159 160 161 162 163 164 165 166 167 168 169 170 171 172 173 174 175 176 177 178 179 180 181 182 183 184 185 186 187 188 189 190 191 192 193 194 195 196 197 198 199 200 201 202 203 204 205 206 207 208 209 210 211 212 213 214 215 216 217 218 219 220 221 222 223 224 225 226 227 228 229 230 231 232 233 234 235 236 237 238 239 240 241 242 243 244 245 246 247 248 249 250 251 252 253 254 255 256 257 258 259 260 261 262 263 264 265 266 267 268 269 270 271 272 273 274 275 276 277 278 279 280 281 282 283 284
        </DataArray>
        <DataArray type="Int32" Name="offsets" format="ascii">
 1 2 3 4 5 6 7 8 9 10 11 12 13 14 15 16 17 18 19 20 21 22 23 24 25 26 27 28 29 30 31 32 33 34 35 36 37 38 39 40 41 42 43 44 45 46 47 48 49 50 51 52 53 54 55 56 57 58 59 60 61 62 63 64 65 66 67 68 69 70 71 72 73 74 75 76 77 78 79 80 81 82 83 84 85 86 87 88 89 90 91 92 93 94 95 96 97 98 99 100 101 102 103 104 105 106 107 108 109 110 111 112 113 114 115 116 117 118 119 120 121 122 123 124 125 126 127 128 129 130 131 132 133 134 135 136 137 138 139 140 141 142 143 144 145 146 147 148 149 150 151 152 153 154 155 156 157 158 159 160 161 162 163 164 165 166 167 168 169 170 171 172 173 174 175 176 177 178 179 180 181 182 183 184 185 186 187 188 189 190 191 192 193 194 195 196 197 198 199 200 201 202 203 204 205 206 207 208 209 210 211 212 213 214 215 216 217 218 219 220 221 222 223 224 225 226 227 228 229 230 231 232 233 234 235 236 237 238 239 240 241 242 243 244 245 246 247 248 249 250 251 252 253 254 255 256 257 258 259 260 261 262 263 264 265 266 267 268 269 270 271 272 273 274 275 276 277 278 279 280 281 282 283 284 285
        </DataArray>
        <DataArray type="UInt8" Name="types" format="ascii">
 1 1 1 1 1 1 1 1 1 1 1 1 1 1 1 1 1 1 1 1 1 1 1 1 1 1 1 1 1 1 1 1 1 1 1 1 1 1 1 1 1 1 1 1 1 1 1 1 1 1 1 1 1 1 1 1 1 1 1 1 1 1 1 1 1 1 1 1 1 1 1 1 1 1 1 1 1 1 1 1 1 1 1 1 1 1 1 1 1 1 1 1 1 1 1 1 1 1 1 1 1 1 1 1 1 1 1 1 1 1 1 1 1 1 1 1 1 1 1 1 1 1 1 1 1 1 1 1 1 1 1 1 1 1 1 1 1 1 1 1 1 1 1 1 1 1 1 1 1 1 1 1 1 1 1 1 1 1 1 1 1 1 1 1 1 1 1 1 1 1 1 1 1 1 1 1 1 1 1 1 1 1 1 1 1 1 1 1 1 1 1 1 1 1 1 1 1 1 1 1 1 1 1 1 1 1 1 1 1 1 1 1 1 1 1 1 1 1 1 1 1 1 1 1 1 1 1 1 1 1 1 1 1 1 1 1 1 1 1 1 1 1 1 1 1 1 1 1 1 1 1 1 1 1 1 1 1 1 1 1 1 1 1 1 1 1 1 1 1 1 1 1 1 1 1 1 1 1 1 1 1 1 1 1 1
        </DataArray>
      </Cells>
      <PointData Scalars="overlap">
        <DataArray type="Float32" Name="overlap" format="ascii">
 0.0001586495 0.0000781462 0.0001494799 0.0000457368 0.0000750011 0.0000406716 0.0001240171 0.0000553524 0.0002482071 0.0003389406 0.0000327619 0.0000020923 0.0000455474 0.0000284680 0.0003515258 0.0000118372 0.0002329001 0.0001018069 0.0001735317 0.0003456435 0.0001974754 0.0002516631 0.0003285451 0.0002998602 0.0002322629 0.0001298042 0.0004574611 0.0004297317 0.0000570898 0.0005211582 0.0000324659 0.0000565005 0.0000694423 0.0001531979 0.0004724225 0.0003604166 0.0004032241 0.0000625326 0.0000945613 0.0002776130 0.0002503086 0.0005640215 0.0000652159 0.0002078813 0.0001234730 0.0001294038 0.0001840504 0.0002028568 0.0003766865 0.0001614653 0.0000482350 0.0001471357 0.0000657058 0.0000407685 0.0000257210 0.0000275578 0.0001072539 0.0003259394 0.0000699269 0.0000086359 0.0001080221 0.0000034049 0.0000620038 0.0001085001 0.0002061261 0.0000442545 0.0000197638 0.0001430609 0.0000042006 0.0000364938 0.0000454334 0.0001830117 0.0000022588 0.0000652025 0.0001061172 0.0000802217 0.0000667455 0.0000043308 0.0000815235 0.0000529648 0.0000113403 0.0000055158 0.0000448280 0.0000517763 0.0000563692 0.0000196808 0.0000445364 0.0000082543 0.0000059470 0.0000120111 0.0001166053 0.0000815556 0.0000498169 0.0000502487 0.0000172254 0.0000439305 0.0000315948 0.0000668365 0.0000080565 0.0000286651 0.0000806618 0.0000955083 0.0001079925 0.0000911584 0.0000373033 0.0001091025 0.0000054960 0.0000488621 0.0000020216 0.0000597643 0.0000110192 0.0000287855 0.0000071788 0.0000082661 0.0000953460 0.0000520351 0.0000235648 0.0000246768 0.0001206638 0.0000077513 0.0000251039 0.0000390397 0.0000186412 0.0000462207 0.0001149902 0.0000671795 0.0000669825 0.0001972573 0.0000475813 0.0002588320 0.0001402030 0.0001264169 0.0000997244 0.0000547521 0.0000924092 0.0000043149 0.0001021425 0.0000154367 0.0000568110 0.0001893885 0.0000296464 0.0001304329 0.0000434250 0.0004574311 0.0000487299 0.0000649142 0.0000347500 0.0001125705 0.0003033949 0.0001533623 0.0000498808 0.0000226827 0.0000926990 0.0000717959 0.0000262017 0.0001265492 0.0000134262 0.0000483079 0.0000894989 0.0000341512 0.0000347762 0.0000101463 0.0000525797 0.0000646444 0.0000178312 0.0000267065 0.0000386691 0.0000351527 0.0000612210 0.0000181822 0.0001031120 0.0000659025 0.0000703113 0.0000198546 0.0000296161 0.0000856300 0.0000332857 0.0000031585 0.0002195968 0.0000432789 0.0000398793 0.0001735540 0.0000213530 0.0000605556 0.0000438609 0.0001138864 0.0000808502 0.0001155121 0.0002990047 0.0000118966 0.0005004313 0.0002122545 0.0003524681 0.0000354699 0.0000373150 0.0000371871 0.0000384427 0.0000481083 0.0001292091 0.0001085987 0.0000031409 0.0000072338 0.0000028452 0.0000134504 0.0000038321 0.0000363201 0.0000164511 0.0000174081 0.0000163337 0.0000773510 0.0000459961 0.0000265243 0.0000226549 0.0000030430 0.0003265276 0.0001880175 0.0000713527 0.0001005188 0.0000692474 0.0000447738 0.0000658350 0.0000262346 0.0000140692 0.0001565725 0.0000362907 0.0000930987 0.0000310609 0.0001359361 0.0000140496 0.0000138093 0.0000518494 0.0000177037 0.0000208630 0.0000026966 0.0000300488 0.0000011068 0.0000962065 0.0000447128 0.0000066165 0.0000012059 0.0000414803 0.0000348461 0.0000452233 0.0000311920 0.0000292462 0.0000302814 0.0000061096 0.0000191257 0.0000101838 0.0000043610 0.0000057003 0.0000015914 0.0000701565 0.0000053292 0.0000312054 0.0000077044 0.0000438944 0.0000733271 0.0000363308 0.0000143832 0.0000115118 0.0000219768 0.0000270096 0.0000096077 0.0000356719 0.0000029757 0.0000103653 0.0000198289 0.0000362473 0.0000003180 0.0000354107 0.0000265436 0.0000184926 0.0000125194 0.0000183214 0.0000043747 0.0000204261 0.0000128344 0.0000470830 0.0000025669 0.0000118822 0.0000272785 0.0001010130 0.0000211210 0.0000767291
        </DataArray>
        <DataArray type="Float32" Name="contact normal" NumberOfComponents="3" format="ascii">