<?xml version="1.0"?>
<VTKFile type="UnstructuredGrid" version="0.1" byte_order="LittleEndian">
  <UnstructuredGrid>
    <FieldData>
      <DataArray type="Float32" Name="TIME"  NumberOfTuples="1" format="ascii"> 1.0000000000 </DataArray>
      <DataArray type="Int32"   Name="STEP"  NumberOfTuples="1" format="ascii"> 100000 </DataArray>
    </FieldData>
    <Piece NumberOfPoints="262" NumberOfCells="262">
      <Points>
        <DataArray type="Float32" NumberOfComponents="3" format="ascii">
 1.6063934283 0.1918651429 -1.4809169711 1.7184593517 0.1145327666 -1.4625404661 1.6556886931 0.1204944654 -1.5854742886 1.7848070118 0.0970375020 -1.6100118658 1.7837865487 0.3409399331 -1.4525704531 1.7954393836 0.3354841945 -1.4597621104 1.8008532852 0.4248762345 -1.4720482127 1.8920031383 0.1675874950 -1.6560577765 1.8998970254 0.1742011102 -1.6565624958 1.8649883409 0.4383027984 -1.5643036269 1.8470301708 0.3720860707 -1.7381865669 1.8571623834 0.3694163637 -1.7475477898 1.8774127147 0.3849288811 -1.7566862897 1.9920366563 0.3787188196 -1.6158536603 2.0029725106 0.3706664420 -1.6241660126 2.0233997074 0.3586636601 -1.7190660806 2.2538632359 0.2583742081 -1.2628466897 2.2070078439 0.3152357260 -1.3554719768 2.2074088834 0.3106897199 -1.3639815847 2.3050728327 0.5066204538 -1.4320756572 2.3064287479 0.4976541960 -1.4523776787 2.2942178139 0.2769381210 -1.4805185860 2.2958223405 0.2903224471 -1.4887076411 2.2619033598 0.4564406096 -1.5572279707 2.2537200734 0.4384513051 -1.5424491940 1.4695672067 0.7780413661 -1.3312102470 1.3960362017 0.8740921106 -1.1714856442 1.3932240394 0.8752278699 -1.1590843435 1.4287203178 0.6987558376 -1.2461671135 1.5236320533 0.7896615496 -1.3006799893 1.4128720772 0.7684832050 -1.1197554772 1.4203083258 0.7624624772 -1.1222230317 1.8494213452 0.7327243455 -1.4086226464 1.9432539337 0.7315364036 -1.4754071065 1.8509317587 0.7207157560 -1.5272575378 1.8551026565 0.7244720821 -1.5306447879 1.8500935686 0.7263525638 -1.5340460580 1.7131426876 0.7462546790 -1.4813525148 1.9543483799 0.8360728724 -1.5307108644 1.7889966517 0.8285649624 -1.4524799661 1.7840043399 0.8296542468 -1.4579769361 1.7923956322 0.8336058279 -1.4578658236 1.7879366341 0.8349164396 -1.4636823454 1.7840456339 0.8367475523 -1.4701884973 1.6788371517 0.4276777004 -1.0159111522 1.5285343262 0.6196527658 -1.1237122911 1.5048791563 0.6447792727 -1.0704805389 1.7597361623 0.4972797164 -1.0682100089 1.7676993938 0.4966050299 -1.0776943813 1.7727770615 0.5124067509 -1.0770139997 1.7794355685 0.5108013030 -1.0853226059 1.6713945792 0.4208035673 -1.2306137405 1.6315414318 0.7165536816 -0.9815252906 1.6397798546 0.7469790967 -1.1956809126 1.8509108951 0.4869491300 -1.2048622706 1.8591008278 0.4979463504 -1.2055572426 1.7045497057 0.8374474543 -1.0853657340 1.8466083208 0.7869957624 -1.1189350750 1.7841937153 0.8757773711 -1.2886908620 1.9921213813 0.7306865304 -1.2448879354 2.1528860496 0.2959025311 -1.3558389385 2.1591912827 0.2933201624 -1.3677923058 2.1318693429 0.1468548938 -1.3622164061 1.8392300654 0.0450426407 -1.5607926565 1.9583611521 0.2163662402 -1.5241348983 2.0440085315 0.3497334565 -1.5026560444 2.0548945007 0.3570963376 -1.5005749272 1.8768352761 0.2867161240 -1.3988964232 1.9403874854 0.1903750571 -1.2828112844 1.8353057720 0.2293459338 -1.3180843177 1.4410059083 0.4179850833 -1.3294394311 1.4352555147 0.4130974567 -1.3192210665 1.4281128187 0.4419645633 -1.2013370954 1.4339528652 0.4510614367 -1.1957302741 1.4308154892 0.4597374039 -1.1875580866 1.4364772912 0.4667154522 -1.1837076149 1.4333705168 0.4740685046 -1.1765882867 1.4358403693 0.4869829839 -1.1667778987 1.4326959025 0.4944523860 -1.1595688849 1.3999376745 0.5829543629 -1.2371085545 1.4046776216 0.5878726193 -1.2386270881 1.4548643344 0.6267584145 -1.1081818360 1.4510130363 0.6354872957 -1.1168776399 1.5161889743 0.3556975792 -1.1482690926 1.5771596867 0.2698068312 -1.2412021340 1.5726319144 0.2613726761 -1.2381936121 1.5828915230 0.2702337989 -1.2445635193 1.5665031707 0.2556518156 -1.2343682117 1.5787021999 0.2604444330 -1.2416823742 1.5882279408 0.2724864466 -1.2477726581 1.5934066539 0.2767023372 -1.2509757888 1.5986827604 0.2832922602 -1.2543352209 1.6043841698 0.2930739993 -1.2580633430 1.4570696351 0.2823105148 -1.1026202010 1.6111655789 0.2911198196 -1.2619415669 1.6629152330 0.2852870754 -1.1944204420 1.6698132487 0.2928385805 -1.1991975412 1.6777759740 0.2894455676 -1.2027225369 1.4848341971 0.2073502598 -1.0968780779 1.4517708376 0.1094271435 -1.1337675892 1.5254715504 0.0244602344 -1.1180998434 1.6712144149 0.1117669871 -1.1834914365 1.6773856188 0.1215292876 -1.1873401441 1.6844694945 0.1260898042 -1.1916751402 2.1316163416 0.0774625985 -1.5263570827 2.2019739237 0.0990503285 -1.3347200500 1.6811448085 0.2935156738 -1.1351884241 2.0761047138 0.6877472991 -1.2575251236 2.0265617158 0.6141187273 -1.4111340047 2.1243316441 0.6684903489 -1.3929904233 2.1218769790 0.6712820969 -1.3989298197 2.1252824944 0.6775017030 -1.3969684671 2.0520436577 0.7447672104 -1.4136015651 1.7961275933 0.4935791654 -1.4453776906 1.8701044059 0.4957824737 -1.4445022668 1.8750822084 0.5149170302 -1.4395561545 1.8839529753 0.5072161439 -1.4491020995 1.7731537010 0.5510574583 -1.5815061525 1.7769537081 0.5651136340 -1.5821789962 1.7859348157 0.5624579186 -1.5920931905 1.7881209898 0.5756567133 -1.5909615932 1.9577289759 0.6359201651 -1.5179347128 1.9665224142 0.6382867461 -1.5240217083 1.9752974435 0.6406516947 -1.5301007168 2.0185539473 0.4554910447 -1.6055198326 2.0264845085 0.4656614492 -1.6080731362 1.9843934551 0.6431810108 -1.5364502382 2.0341684067 0.4755584266 -1.6107020632 1.8903379941 0.7297509552 -1.6336411753 1.8977101809 0.7418519237 -1.6338882301 1.9942281291 0.6460797436 -1.5434118801 1.8981687130 0.7278381119 -1.6428492171 2.0054207353 0.6496537743 -1.5514893607 1.9628961701 0.7527795519 -1.6279199375 1.9673617982 0.6191446766 -1.7415770662 2.0619026384 0.5473904800 -1.7057952733 1.9814311279 0.6312949618 -1.7533491919 2.1228351810 0.6588716946 -1.6428057932 1.6310420727 0.7405143960 -1.5294053138 1.6389478169 0.7405667139 -1.5331164830 1.6464736732 0.7408923421 -1.5368655769 1.7149980160 0.6325764741 -1.6103027799 1.7158827572 0.6394973641 -1.6053637113 1.7219938305 0.6511249825 -1.6102360994 1.8146635620 0.1241060310 -1.2090477765 1.8052092368 0.0306709649 -1.1427909489 1.6333088016 0.1331408276 -1.0828582794 1.7121449137 0.0750495925 -1.0675112198 1.7047666971 0.0785221804 -1.0633865492 1.6314667801 0.0325410307 -1.0442712843 1.6232116122 0.0404478670 -1.0540841713 1.5502254087 0.0590960500 -1.3928833735 1.5691171087 0.1518033903 -1.4240910126 1.5725711503 0.1493936558 -1.4247295637 1.5917915446 0.1789198486 -1.3571683893 1.6008857458 0.1840051737 -1.3587904212 1.6047774643 0.1292879702 -0.9344666493 1.4042193611 0.8919124208 -1.0908445093 1.4142562930 0.9003418489 -1.0922442807 1.7062200943 0.4614151689 -1.4171798044 1.8179285169 0.3654282013 -1.3946713201 1.9341643624 0.5611999000 -1.7813137993 1.9263976964 0.5658824963 -1.7772616757 1.9969096118 0.0547583071 -1.5767355544 1.9725066017 0.0673782803 -1.5344013891 1.9826928130 0.0717390288 -1.5337889488 1.9760413562 0.0736705581 -1.5298437663 2.0709500409 0.1010306803 -1.5890825877 2.0799926827 0.1141222998 -1.5883503898 1.9455428454 0.1749628935 -1.6254360055 1.9505542599 0.1786508890 -1.6257883481 1.8626528895 0.1325832297 -1.0965006337 2.2037326777 0.5797770351 -1.6011394537 2.1659829168 0.5792135749 -1.5118752840 2.1618694465 0.4511977914 -1.5710032553 2.1612897540 0.4462836764 -1.5753180663 2.1571336869 0.4441162703 -1.5706975389 2.1136732239 0.3666573081 -1.6434342119 2.1100753326 0.3599590803 -1.6345639983 2.0923098188 0.6295440285 -1.4922445063 1.9923723959 0.5827803266 -1.4309530697 1.9847595083 0.5872320076 -1.4253653310 1.5154915533 0.8719612215 -1.0985627816 1.5223405512 0.8710085861 -1.0945911926 1.4525249760 0.2561576597 -1.3427826203 1.5378074306 0.2508830343 -1.4368216371 1.5705790325 0.1308332746 -1.0401311191 1.6080244255 0.1683969702 -1.0610656863 1.5164829807 0.2427131269 -1.0907267210 1.9358851182 0.0116691213 -1.3320958221 1.7236082931 0.8671638600 -1.0111841076 1.9756595472 0.1377870388 -1.2220202742 1.8655686098 0.1437122187 -1.2396404605 1.7044394908 0.7795546793 -1.5477844130 1.7134770299 0.7885814759 -1.5550124470 1.6892703048 0.8968210399 -1.5606723007 1.9507013604 0.7625743427 -1.1438155541 1.9411478680 0.7669306925 -1.0673215077 1.7960808816 0.9234689120 -1.6266375664 1.5110371024 0.0526582504 -1.3218070883 1.4616483950 0.0349024283 -1.3481369797 1.4567483009 0.0330102570 -1.3522045132 1.4513582466 0.0407562287 -1.3484671633 1.7623603363 0.8184279570 -1.0033785838 1.6245106190 0.7796031098 -1.3499999143 1.6877193141 0.9028150933 -1.3205648580 1.6970717647 0.9032461918 -1.3322347239 1.6689490605 0.8797669540 -1.3487513202 1.3742850619 0.1909679956 -1.2625351961 1.4423434785 0.1129240002 -1.3315273654 2.0405319261 0.8818729229 -1.5369914746 2.0325126550 0.8853369637 -1.5286155448 1.7280649948 0.2618881734 -0.9267160900 2.1579837092 0.6425472651 -1.4413051597 2.1611092789 0.6470014583 -1.4442830757 2.1578491689 0.6500151262 -1.4478531279 2.1749035455 0.3492161198 -1.5532973994 1.9931296137 0.0375823637 -1.4618364290 1.9948166303 0.0318797402 -1.4682447383 2.0948476068 0.0128009171 -1.6201220195 2.1042039368 0.0007926085 -1.5717789831 2.1021738290 0.0041726677 -1.5624080916 1.5700364587 0.1238089285 -1.4820690775 1.6321459880 0.2974522432 -1.4473056223 2.0572803640 0.8351370493 -1.6470486154 2.0576299747 0.8437401013 -1.6468087872 1.9811554407 0.8712225630 -1.6307784768 1.9795842761 0.8737274082 -1.6266948382 1.9780642291 0.8763193861 -1.6225255528 1.9814159718 0.8795568211 -1.6213378205 1.9799320176 0.8826779709 -1.6166031161 1.8144301935 0.4699244102 -0.9920535561 1.6529906040 0.5960626906 -0.8894521750 1.9552759617 0.0929133565 -1.8210695314 1.9630530429 0.1035713727 -1.8132327205 1.9647603599 0.1087580624 -1.8080656120 1.9740720568 0.1189293503 -1.8017426930 1.9749505381 0.0255280564 -1.3943039201 1.9639093285 0.0243552067 -1.3880317427 1.9962782415 0.0302790573 -1.4037998120 1.8846963987 0.0433948469 -1.3668289587 2.3892526129 0.3037363810 -1.3597497301 1.4498507664 0.6101631875 -1.3047629750 1.4408530323 0.5979069419 -1.3067392550 1.5948487765 0.6346892181 -1.3311988476 1.5799074207 0.5032519660 -1.4165847249 1.6648378301 0.4684079436 -1.5260145014 1.6712999242 0.4287728532 -0.9785752815 1.6542301960 0.4323389310 -0.9732911498 1.5677110872 0.3078847932 -1.0265020738 1.6074940165 0.2874420197 -0.9692139464 1.6104771373 0.2826166095 -0.9734722800 1.5732956779 0.2985578922 -1.0285635240 1.7968160673 0.7818656502 -1.0409504180 1.8497714291 0.0316376047 -1.1536876789 1.8304220768 0.0101395775 -1.0881270920 1.8303378616 0.0114353237 -1.0843244780 1.4796210073 0.4165124138 -1.1342080774 1.4730686692 0.4140939823 -1.1319181307 1.9697407816 -0.0335780265 -1.2496187911 1.7516589361 0.8914460433 -1.3768300233 1.7446399630 0.8856605292 -1.3761457278
        </DataArray>
      </Points>
      <Cells>
        <DataArray type="Int32" Name="connectivity" format="ascii">
 0 1 2 3 4 5 6 7 8 9 10 11 12 13 14 15 16 17 18 19 20 21 22 23 24 25 26 27 28 29 30 31 32 33 34 35 36 37 38 39 40 41 42 43 44 45 46 47 48 49 50 51 52 53 54 55 56 57 58 59 60 61 62 63 64 65 66 67 68 69 70 71 72 73 74 75 76 77 78 79 80 81 82 83 84 85 86 87 88 89 90 91 92 93 94 95 96 97 98 99 100 101 102 103 104 105 106 107 108 109 110 111 112 113 114 115 116 117 118 119 120 121 122 123 124 125 126 127 128 129 130 131 132 133 134 135 136 137 138 139 140 141 142 143 144 145 146 147 148 149 150 151 152 153 154 155 156 157 158 159 160 161 162 163 164 165 166 167 168 169 170 171 172 173 174 175 176 177 178 179 180 181 182 183 184 185 186 187 188 189 190 191 192 193 194 195 196 197 198 199 200 201 202 203 204 205 206 207 208 209 210 211 212 213 214 215 216 217 218 219 220 221 222 223 224 225 226 227 228 229 230 231 232 233 234 235 236 237 238 239 240 241 242 243 244 245 246 247 248 249 250 251 252 253 254 255 256 257 258 259 260 261
        </DataArray>
        <DataArray type="Int32" Name="offsets" format="ascii">
 1 2 3 4 5 6 7 8 9 10 11 12 13 14 15 16 17 18 19 20 21 22 23 24 25 26 27 28 29 30 31 32 33 34 35 36 37 38 39 40 41 42 43 44 45 46 47 48 49 50 51 52 53 54 55 56 57 58 59 60 61 62 63 64 65 66 67 68 69 70 71 72 73 74 75 76 77 78 79 80 81 82 83 84 85 86 87 88 89 90 91 92 93 94 95 96 97 98 99 100 101 102 103 104 105 106 107 108 109 110 111 112 113 114 115 116 117 118 119 120 121 122 123 124 125 126 127 128 129 130 131 132 133 134 135 136 137 138 139 140 141 142 143 144 145 146 147 148 149 150 151 152 153 154 155 156 157 158 159 160 161 162 163 164 165 166 167 168 169 170 171 172 173 174 175 176 177 178 179 180 181 182 183 184 185 186 187 188 189 190 191 192 193 194 195 196 197 198 199 200 201 202 203 204 205 206 207 208 209 210 211 212 213 214 215 216 217 218 219 220 221 222 223 224 225 226 227 228 229 230 231 232 233 234 235 236 237 238 239 240 241 242 243 244 245 246 247 248 249 250 251 252 253 254 255 256 257 258 259 260 261 262
        </DataArray>
        <DataArray type="UInt8" Name="types" format="ascii">
 1 1 1 1 1 1 1 1 1 1 1 1 1 1 1 1 1 1 1 1 1 1 1 1 1 1 1 1 1 1 1 1 1 1 1 1 1 1 1 1 1 1 1 1 1 1 1 1 1 1 1 1 1 1 1 1 1 1 1 1 1 1 1 1 1 1 1 1 1 1 1 1 1 1 1 1 1 1 1 1 1 1 1 1 1 1 1 1 1 1 1 1 1 1 1 1 1 1 1 1 1 1 1 1 1 1 1 1 1 1 1 1 1 1 1 1 1 1 1 1 1 1 1 1 1 1 1 1 1 1 1 1 1 1 1 1 1 1 1 1 1 1 1 1 1 1 1 1 1 1 1 1 1 1 1 1 1 1 1 1 1 1 1 1 1 1 1 1 1 1 1 1 1 1 1 1 1 1 1 1 1 1 1 1 1 1 1 1 1 1 1 1 1 1 1 1 1 1 1 1 1 1 1 1 1 1 1 1 1 1 1 1 1 1 1 1 1 1 1 1 1 1 1 1 1 1 1 1 1 1 1 1 1 1 1 1 1 1 1 1 1 1 1 1 1 1 1 1 1 1 1 1 1 1 1 1 1 1 1 1 1 1
        </DataArray>
      </Cells>
      <PointData Scalars="overlap">
        <DataArray type="Float32" Name="overlap" format="ascii">
 0.0001379990 0.0004980632 0.0000769880 0.0000527737 0.0000842361 0.0000480935 0.0001399848 0.0000527158 0.0002456423 0.0003107321 0.0000499283 0.0000220236 0.0003255459 0.0000073696 0.0002287346 0.0000979608 0.0001168689 0.0003401428 0.0002317402 0.0003328456 0.0001316539 0.0003106830 0.0002586835 0.0000785607 0.0004124840 0.0001551158 0.0001679916 0.0000251250 0.0003202508 0.0000761132 0.0001075579 0.0000924394 0.0000593097 0.0002253816 0.0002331834 0.0005440900 0.0000481735 0.0001183988 0.0001121587 0.0001338630 0.0001813407 0.0002178921 0.0003854222 0.0001647577 0.0000835295 0.0002035644 0.0000035092 0.0000607768 0.0000323115 0.0000314241 0.0001066761 0.0003235766 0.0001675532 0.0000401166 0.0001254913 0.0000299644 0.0000127858 0.0001163421 0.0001761830 0.0000376650 0.0000793700 0.0001629127 0.0000422865 0.0000810574 0.0001715570 0.0000418689 0.0000614732 0.0001485868 0.0000708796 0.0001031596 0.0000824340 0.0000565015 0.0000350370 0.0000403426 0.0000498751 0.0000097723 0.0000403122 0.0000058969 0.0000093988 0.0000978578 0.0000699556 0.0000396318 0.0000568639 0.0000252474 0.0000456418 0.0000336791 0.0000690327 0.0000101142 0.0000314011 0.0000831383 0.0000980656 0.0001104184 0.0000931858 0.0000621515 0.0001119359 0.0000004100 0.0000443233 0.0000017562 0.0000490251 0.0000451846 0.0000058830 0.0000815959 0.0000351088 0.0000083164 0.0000078613 0.0001345040 0.0000067892 0.0001348672 0.0000552293 0.0000432133 0.0001935587 0.0000369424 0.0002900229 0.0001507712 0.0002254257 0.0001885454 0.0001017995 0.0002938111 0.0003968824 0.0001041730 0.0003152726 0.0000038422 0.0000251244 0.0000368457 0.0001087919 0.0002299996 0.0000448221 0.0001599410 0.0000810519 0.0000071786 0.0000516886 0.0003014700 0.0000487716 0.0000493144 0.0000411184 0.0001219005 0.0003026121 0.0001103506 0.0001121309 0.0001494515 0.0000011027 0.0000824197 0.0001378457 0.0001520843 0.0000348495 0.0000426454 0.0000915030 0.0000038789 0.0000145163 0.0000689301 0.0000027886 0.0000291894 0.0000028038 0.0000068151 0.0000182982 0.0000159085 0.0000394955 0.0000396413 0.0000077228 0.0000226118 0.0000032982 0.0001146926 0.0000777340 0.0000668593 0.0000305375 0.0000384454 0.0000945483 0.0000504723 0.0000181382 0.0002152308 0.0000404196 0.0000263817 0.0000390982 0.0000161742 0.0001534449 0.0001109300 0.0001445580 0.0000328394 0.0000930744 0.0000292272 0.0000039967 0.0000279476 0.0000536963 0.0000614950 0.0001718524 0.0001406036 0.0000308486 0.0000501396 0.0000182596 0.0000221080 0.0000036965 0.0000339681 0.0000277483 0.0000162490 0.0000023169 0.0000846201 0.0000234173 0.0000741423 0.0002114748 0.0000597353 0.0001487223 0.0001674520 0.0001510789 0.0000478027 0.0000856977 0.0000548261 0.0000390743 0.0001387534 0.0000598664 0.0001702420 0.0001411901 0.0000418802 0.0000106967 0.0000098584 0.0000196893 0.0000059351 0.0000482757 0.0000822514 0.0000298620 0.0000191006 0.0000176459 0.0000369949 0.0000510925 0.0000114611 0.0000467405 0.0000233159 0.0000089213 0.0000245035 0.0000074947 0.0000161321 0.0000128295 0.0001048540 0.0000199289 0.0000069672 0.0000448006 0.0000109821 0.0000055317 0.0000218397 0.0000109314 0.0000116551 0.0000051173 0.0000061928 0.0000596513 0.0000187516 0.0000340078 0.0000120971 0.0000148661 0.0000111909 0.0000194967 0.0000246630 0.0000188936 0.0000252676 0.0000312728 0.0000165218 0.0000376208 0.0000288014 0.0000126798 0.0000286700 0.0000285965 0.0000609117 0.0000021057 0.0000524228
        </DataArray>
        <DataArray type="Float32" Name="contact normal" NumberOfComponents="3" format="ascii">
 0.6225097652 -0.1467608201 -0.7687280754 -0.4919278960 0.7355618333 -0.4657850734 0.5239353043 0.7807555709 0.3404593006 -0.5546789310 0.7728354003 -0.3083127105 -0.5996107694 0.0447094727 -0.7990419189 -0.4939087436 -0.0164571932 -0.8693579894 0.2647845843 -0.7314046831 -0.6284395862 -0.7101428990 0.6815740274 -0.1765046973 -0.6611765703 0.7244863265 -0.1948463641 -0.3381578818 -0.9266474589 -0.1642368226 0.4838176558 -0.5323584159 0.6946329916 0.4889657254 -0.5251383800 0.6965215009 0.5264844445 -0.4689212878 0.7091734312 -0.6844224826 0.1523535285 -0.7129896687 -0.6632459038 -0.0027877358 -0.7483963519 -0.2188971052 -0.1389894712 0.9657981074 -0.8956356150 0.3475698223 -0.2775465074 0.9040642571 -0.2265179166 0.3624326868 0.9349941689 -0.2165430948 0.2808825238 -0.9849077339 -0.1456682638 -0.0934746630 -0.9785230655 -0.1661577565 -0.1220008618 -0.9647994388 0.1992764840 0.1716127201 -0.9053669217 0.4224257342 -0.0432115276 0.9098137709 0.0079901549 0.4149398265 0.8759546201 -0.1094342599 0.4698166091 -0.1356099080 -0.5556639722 0.8202728222 0.1997768500 -0.9696777038 0.1407634931 0.1998053972 -0.9696705537 0.1407722292 0.4097602438 0.9118106130 -0.0264187164 -0.4128288536 -0.7252090360 0.5510391926 0.2295497204 0.5844786388 -0.7782619396 0.2615800041 0.5482641112 -0.7943439845 -0.5051077995 -0.0902477906 -0.8583247912 -0.7496491514 0.6516039748 0.1159241556 -0.4823761161 0.6283888209 0.6102792577 -0.4205606499 0.6468789019 0.6361418286 -0.4553098645 0.6546922397 0.6033829618 0.7842051830 0.1718295190 0.5962355637 0.0821660079 -0.7260622739 0.6827022203 0.3201650526 -0.8288703352 -0.4587682493 0.3271318955 -0.8232143958 -0.4640073076 0.4247592646 -0.7675673178 -0.4800208118 0.4071901104 -0.7785596476 -0.4775364793 0.3949721029 -0.7859417399 -0.4757022382 0.1350010018 0.8250153933 -0.5487479662 0.6669044476 -0.4423245151 0.5996561357 0.9979948485 -0.0448754992 -0.0446371147 -0.7315587577 0.2747690259 -0.6239581447 -0.7265309131 0.2536370186 -0.6386087183 -0.7252648951 0.3198270219 -0.6096732797 -0.7248628922 0.2855742728 -0.6269139672 0.3611642794 0.5142441756 0.7778902822 -0.1523655677 -0.4095473186 -0.8994752513 0.4316313362 -0.9011863005 0.0394669662 -0.8735584484 0.3610553145 -0.3263965335 -0.7610728697 0.6477359471 0.0347308199 0.2202174308 -0.5799543779 -0.7843195795 -0.5793482667 -0.1690174355 -0.7973635885 0.3731410310 -0.7561196638 0.5376326115 -0.7699333592 -0.0523036289 -0.6359771637 0.7500618931 -0.4091815202 0.5195937259 0.7553013998 -0.4039248633 0.5161051252 -0.6358782764 0.7573946321 -0.1483650524 -0.0638006906 -0.4608737373 0.8851694020 0.1129466766 0.6142145175 0.7810144523 -0.3770722442 -0.7849489943 0.4916010568 0.6943989223 -0.4135330998 0.5888977094 0.6924374694 -0.3041688874 0.6542259846 -0.2821880047 0.6163056413 -0.7352124091 0.8835392173 0.4359740045 -0.1711289542 0.0358267993 0.9285425510 0.3694931277 -0.1647920225 0.6789704686 0.7154318221 -0.2540920770 0.6163225443 -0.7453748975 -0.2037659106 0.6175577426 -0.7596722242 -0.2541077625 0.6163218919 -0.7453700897 -0.2540116612 0.6163258877 -0.7453995413 -0.2541119872 0.6163217161 -0.7453687948 -0.2541119612 0.6163217172 -0.7453688028 -0.2542126737 0.6163175228 -0.7453379285 0.6634663276 -0.5348655216 0.5231933733 0.6651547741 -0.5280570411 0.5279440196 -0.3211801759 -0.9104275483 -0.2607009279 0.2522078338 -0.5593180981 -0.7896546547 -0.2328469791 -0.2667603038 -0.9352118608 0.4998014605 0.0404567756 0.8651946309 0.5001146342 0.0400506891 0.8650325398 0.5002476340 0.0398785280 0.8649635875 0.5000699398 0.0401086510 0.8650556927 0.5006921891 0.0393012616 0.8647327579 0.5005072623 0.0395415898 0.8648288519 0.5005966654 0.0394357750 0.8647819368 0.5005961742 0.0396704518 0.8647714875 0.5001970309 0.0402509135 0.8649756033 -0.5266861959 -0.2229344384 -0.8203059717 0.5015367938 0.0407390849 0.8641765858 -0.4677125145 -0.1240664880 -0.8751299962 -0.4711974551 -0.1171154768 -0.8742178924 -0.4558297002 -0.1447221278 -0.8782225175 -0.1982973629 -0.2966511639 -0.9341714205 0.9078324450 0.4094575312 -0.0904697846 -0.2081132783 0.4233884451 -0.8817205271 -0.5003640695 -0.0309855044 -0.8652604790 -0.5200847968 -0.0025608365 -0.8541107927 -0.5006652031 -0.0300233890 -0.8651201942 0.8025676030 0.1155428598 0.5852649744 -0.5554716100 0.4640053941 -0.6900364372 0.6653714758 -0.5918973180 0.4549047858 0.3577258303 0.1576280500 -0.9204268728 0.7216887334 0.6883408788 -0.0731587766 -0.8017781961 0.3166051624 0.5068657568 -0.8037880043 0.3148163704 0.5047925288 -0.7992401887 0.3195579254 0.5090165547 0.5449451798 -0.6925332691 0.4726863889 0.2223457084 0.9101778876 -0.3494833314 -0.7958776948 -0.4426268058 -0.4131104038 -0.3310372104 0.6014776211 -0.7270756746 -0.2927682710 0.5599034529 -0.7751095812 0.6987697114 -0.1613508806 0.6969123214 0.6987270214 -0.1613195512 0.6969623748 0.7285621349 -0.1836759871 0.6598941940 0.7285003391 -0.1836286106 0.6599755975 -0.3915090448 -0.5136947019 -0.7634385509 -0.3916287809 -0.5134652557 -0.7635314854 -0.3918355566 -0.5133680991 -0.7634907278 -0.7138340388 0.4077327039 -0.5693812494 -0.7138395063 0.4077426777 -0.5693672523 -0.3919494283 -0.5131739196 -0.7635628159 -0.7138443490 0.4077515112 -0.5693548547 0.1573044506 -0.9252054328 0.3453262471 0.7752968797 -0.0368985820 0.6305182336 -0.3922638002 -0.5128984980 -0.7635864337 0.2362923303 -0.9442089388 0.2294240933 -0.3932596959 -0.5129816549 -0.7630181081 0.0589888935 -0.8657515617 0.4969854564 0.5200313674 0.0739896026 0.8509364933 -0.7145670224 0.4645146944 0.5230870569 0.6219025758 0.2371372393 0.7463264138 -0.8854005550 0.4575078302 0.0821732464 -0.3461932025 -0.5074159106 -0.7891003487 -0.3228592483 -0.5343986649 -0.7811401748 -0.3256562546 -0.5272446732 -0.7848318664 -0.8881417383 0.3380399136 -0.3113410822 -0.8939679951 0.3472206281 -0.2833002986 -0.8920458138 0.3440831733 -0.2930205386 -0.4812203124 0.3843964731 0.7878238143 -0.8640295573 0.4709077959 -0.1780414889 0.0028797277 -0.4692159366 -0.8830787689 -0.4185364902 -0.0284003797 -0.9077558178 -0.4732227984 0.0210670761 -0.8806908432 0.7213943839 0.2563295391 -0.6433391876 0.7271446370 0.0302568419 -0.6858171771 0.2939019146 0.9542875426 0.0543778512 -0.0539431909 -0.3049377339 0.9508433681 -0.0449474467 -0.3138172325 0.9484189326 -0.1608640978 -0.3962144100 -0.9039562397 0.4556370059 -0.6171622247 -0.6414871060 0.3812966476 0.6115371188 0.6932786012 -0.4192466384 0.3043756900 -0.8553289984 -0.3502031303 0.3751770086 -0.8582540298 0.9715263861 0.2306396896 -0.0542384984 -0.0631573550 0.7905591535 0.6091201633 0.5950324161 0.7564079374 0.2716311029 0.5515891852 0.8032419318 0.2248372075 0.0635490630 0.9264853344 0.3709264639 -0.3296065841 0.6415706599 -0.6926374146 -0.2644336223 0.6685615070 -0.6950542214 -0.2893162720 0.6598961508 -0.6934213473 -0.7759707258 0.5103029182 -0.3707564758 -0.7595311091 0.5488704208 -0.3490755728 0.3958725637 -0.6178305858 0.6793896382 0.3977623856 -0.6082942459 0.6868501984 -0.6864445247 0.7199243668 -0.1024832696 -0.6286945573 -0.7383796548 0.2440054077 0.1773562064 -0.6411813374 -0.7466131988 -0.7149625056 0.6933394925 -0.0900497843 -0.7090298159 0.4300132862 -0.5588964966 -0.8006615048 0.3321713901 -0.4986013662 -0.6448086106 0.7314709670 0.2217477848 -0.6562273089 0.7087138819 0.2590180546 -0.7790657888 0.4332419248 -0.4531643536 -0.2356942946 0.5354954095 -0.8109826545 -0.2750228880 0.5758173102 -0.7699330078 -0.4431959908 0.3189213387 0.8377747271 -0.4428802350 0.3133922386 0.8400252391 0.6869089566 0.7258741499 -0.0355359514 -0.6542913784 0.1805296941 0.7343785275 -0.4717635703 -0.2560808411 -0.8437189915 -0.1783126402 -0.2649662316 -0.9476272994 0.1996978109 -0.5779168946 -0.7912855662 -0.9350541278 0.3524685979 -0.0379429248 -0.1076966310 -0.0351285974 -0.9935629911 -0.6943494175 0.4751035827 -0.5405140814 0.8546723018 -0.2831215846 0.4351751657 -0.7290665916 -0.1552093087 -0.6666123127 -0.6618890154 -0.0585399670 -0.7473125207 -0.7409226698 -0.5187618009 -0.4265205638 0.7415148215 0.0779876362 0.6663885488 0.0704005793 -0.2170153827 -0.9736262538 -0.7998334774 0.2665223399 0.5378031711 -0.2678529723 -0.7083813608 -0.6530318774 0.4036353108 0.5541616913 -0.7279995575 0.3685263778 0.5814155665 -0.7253580136 0.3258574933 0.6245529134 -0.7097538676 -0.1029103797 0.2214613811 0.9697238320 -0.2322798750 0.8899184540 -0.3925445260 -0.9013272406 -0.0717606787 -0.4271529122 -0.8479189476 0.1559342203 -0.5066734424 0.3372040830 -0.3783034781 0.8620788159 -0.3969078011 0.4600734846 -0.7942270369 -0.4034143421 0.2177997597 -0.8887182530 0.7323342143 -0.4653683442 0.4971105539 0.6768621308 0.1344788359 0.7237216996 0.5973903544 -0.1697162166 0.7837864316 0.1993027867 -0.6462098093 -0.7366758321 0.2031997535 -0.6435778512 -0.7379142291 0.1987991072 -0.6442416234 -0.7385334425 -0.3986558785 0.9167250908 -0.0262411595 -0.4840825212 0.4467139950 -0.7524032957 -0.4878912383 0.4320084222 -0.7585056774 0.6776986786 0.4023073616 0.6155268377 -0.1830523960 0.8294847343 -0.5276806761 -0.1909774147 0.8555701328 -0.4811729159 0.3918890245 0.7268523873 0.5640111698 -0.4607266780 -0.8677268078 0.1864969576 0.9930154398 -0.1176925308 -0.0082948466 0.8600579563 0.2005868285 -0.4691111127 0.4112946699 -0.6987479763 0.5853101401 0.4112342815 -0.6987837988 0.5853098053 0.4113926714 -0.6997095913 0.5840912239 0.4506125328 -0.6738021642 0.5856099289 0.4507762866 -0.6737030515 0.5855979319 -0.6908382464 0.3661300538 -0.6234511215 -0.2975199471 0.5751107757 -0.7620560851 0.3790449548 -0.7125875702 0.5903760472 0.3792056142 -0.7123809804 0.5905221765 0.3791774647 -0.7123613208 0.5905639669 0.3792200077 -0.7123654705 0.5905316437 -0.3737868517 0.8108973830 -0.4502541768 -0.3431864638 0.9008831172 -0.2657680570 -0.2849863164 0.9275320221 -0.2417998085 0.8471995925 -0.4179884918 0.3279305889 -0.0445024893 -0.2086463311 0.9769781149 0.6270458216 -0.2138390351 -0.7490570103 0.5432804139 -0.3890705929 -0.7439559568 -0.4819824719 -0.8525669571 0.2020457384 -0.5274698117 0.8314394890 -0.1745966035 0.1521164319 -0.2082296400 0.9661785592 -0.0594899524 -0.9974328414 -0.0398581535 -0.5097375445 -0.0593339535 -0.8582814909 0.6185213793 0.3173835912 0.7188177512 -0.0101446835 0.7961535817 -0.6050095535 0.0093604840 0.7839574442 -0.6207439947 0.7674756453 0.2997085186 0.5667062182 -0.4660924441 -0.1109888662 -0.8777467204 -0.9099080417 0.3623382058 0.2019365747 -0.8738743958 0.4380597131 -0.2108251126 -0.8801808331 0.4477512906 -0.1574816906 -0.4172547411 0.5450235583 -0.7272192255 -0.4594317658 0.5284567432 -0.7139019002 -0.0179199577 0.1916381351 -0.9813020434 0.3540665196 -0.2788867583 0.8926696341 0.3477111485 -0.3288374368 0.8780449290
        </DataArray>
        <DataArray type="Float32" Name="contact force" NumberOfComponents="3" format="ascii">