<?xml version="1.0"?>
<VTKFile type="UnstructuredGrid" version="0.1" byte_order="LittleEndian">
  <UnstructuredGrid>
    <FieldData>
      <DataArray type="Float32" Name="TIME"  NumberOfTuples="1" format="ascii"> 2.2000000000 </DataArray>
      <DataArray type="Int32"   Name="STEP"  NumberOfTuples="1" format="ascii"> 220000 </DataArray>
    </FieldData>
    <Piece NumberOfPoints="270" NumberOfCells="270">
      <Points>
        <DataArray type="Float32" NumberOfComponents="3" format="ascii">
 7.3207816252 0.1552528388 -7.9524005808 7.4459552034 0.0985977260 -7.9409567283 7.3590372403 0.0970468864 -8.0690205587 7.4551952054 0.0982523118 -7.9593574391 7.4844732087 0.0862471442 -8.1134246116 7.4897852454 0.3153720385 -7.9352344149 7.5006063622 0.3114953139 -7.9444611744 7.4980299956 0.4017467289 -7.9489521503 7.5787032248 0.1688395056 -8.1671645345 7.5859668620 0.1760912507 -8.1681439909 7.5469183208 0.4279201249 -8.0475937534 7.5518991817 0.4302639649 -8.0620789069 7.5083169510 0.3751112909 -8.2226963846 7.5171294003 0.3740584582 -8.2335891829 7.5347146877 0.3918695395 -8.2439718001 7.6688456475 0.3833341649 -8.1217156235 7.6789739850 0.3769124582 -8.1321901006 7.6860847388 0.3745140024 -8.2297125656 7.9870932100 0.2557500171 -7.8215751659 7.9234195147 0.3161017846 -7.9010001100 7.9228586635 0.3123266521 -7.9098721290 7.9959413295 0.5204857487 -7.9723194030 7.9948455690 0.5133544716 -7.9933598006 7.9937756753 0.2954759391 -8.0400494558 7.9932505219 0.3095751754 -8.0470931961 7.9384124012 0.4775090525 -8.0943372658 7.9337263354 0.4577526693 -8.0803082134 7.1578144128 0.7117281517 -7.7311889251 7.1712193143 0.7051589128 -7.7372572398 7.1129774102 0.7898517166 -7.5657679332 7.1119771111 0.7903292082 -7.5539584797 7.1232838456 0.7923741308 -7.5581671027 7.1453508610 0.6247666195 -7.6482172343 7.1432798052 0.6825577093 -7.5149951598 7.1506753250 0.6773829176 -7.5190225364 7.5341713870 0.7061444151 -7.8644077627 7.6170641657 0.7181148962 -7.9434552218 7.5191053438 0.7042198755 -7.9826719956 7.5224703797 0.7085701040 -7.9862405879 7.5169009367 0.7103162215 -7.9887166560 7.3881576327 0.7146389702 -7.9157395152 7.6128168110 0.8274463958 -7.9897089266 7.4616059871 0.8001108841 -7.8901722585 7.4558007614 0.8012453228 -7.8947916265 7.4638282307 0.8058409458 -7.8954820370 7.4584877015 0.8072652074 -7.9004701340 7.4535711157 0.8093096991 -7.9061685092 7.4441859658 0.3568450269 -7.4820195488 7.2669229746 0.5442564656 -7.5493577844 7.5116068975 0.4368884704 -7.5383664288 7.5181225108 0.4376504436 -7.5488919378 7.5027532372 0.3542286726 -7.5950511970 7.5221552303 0.4536997212 -7.5474496375 7.5276188356 0.4533343212 -7.5567209561 7.4058980219 0.3671854218 -7.6932880509 7.3827516705 0.6371037791 -7.4144990152 7.3574651499 0.6857092687 -7.6239212929 7.5822946901 0.4453411621 -7.6867753164 7.5895251527 0.4569852749 -7.6875754127 7.5700800060 0.7359084883 -7.5733874264 7.5794904634 0.7551869216 -7.5846774345 7.4775601432 0.8330498712 -7.7237200532 7.6991034628 0.7022157835 -7.7231484011 7.8712701008 0.2927037874 -7.8951695115 7.8758698551 0.2915344499 -7.9080830982 7.8597390738 0.1433362345 -7.9112649761 7.5522805029 0.0457074292 -8.0726191078 7.6602329842 0.2118107401 -8.0418393442 7.7387811722 0.3494273396 -8.0200715116 7.5932336686 0.2646781477 -7.9004273519 7.6794783687 0.1644946556 -7.8038746770 7.5679532235 0.1976101998 -7.8203566925 7.1407484973 0.2849085078 -7.7654885902 7.1430120840 0.2863147855 -7.7576532663 7.1642196701 0.3538480959 -7.7588319948 7.1644162464 0.3416271324 -7.6507373867 7.1708878476 0.3550786623 -7.6408814900 7.1685905158 0.3660200623 -7.6284968089 7.1745505482 0.3750655987 -7.6229332000 7.1720559527 0.3827488856 -7.6136248006 7.1777280374 0.3898212681 -7.6099663533 7.1752004451 0.3962804479 -7.6018242039 7.1781883001 0.4084942895 -7.5912874881 7.1756286849 0.4150585029 -7.5830407392 7.1258950314 0.5067305865 -7.6466089782 7.1300139527 0.5121264323 -7.6483064868 7.1959549671 0.5440053969 -7.5230828863 7.1902864000 0.5530874564 -7.5302998912 7.2691870544 0.2830405376 -7.5965459542 7.3216624889 0.2104019798 -7.7047165431 7.3182128641 0.2014069605 -7.7019100162 7.3267982278 0.2115713032 -7.7087898706 7.3131165539 0.1949088184 -7.6978203729 7.3237569751 0.2012683617 -7.7062832347 7.3314407246 0.2145091337 -7.7124867215 7.3357937473 0.2193835761 -7.7159715229 7.3400571195 0.2266368590 -7.7194013470 7.3444672698 0.2371255289 -7.7229546237 7.2225631553 0.2015556245 -7.5501679528 7.3507266313 0.2360581095 -7.7279071876 7.4120709858 0.2288758195 -7.6691148159 7.4176610994 0.2373337045 -7.6740790342 7.4252369853 0.2349040053 -7.6789828159 7.2559440543 0.1288849977 -7.5554145942 7.2117857437 0.0538521885 -7.5835927668 7.2246443942 0.0319950249 -7.5963466228 7.3054965752 -0.0476957491 -7.5991573762 7.4231680656 0.0358323406 -7.6675641939 7.4337690603 0.0563002604 -7.6757693600 7.4386257708 0.0668180079 -7.6795096063 7.4446703686 0.0722835088 -7.6843431875 7.8835190376 0.1689061562 -8.0750156529 7.9362080570 0.0992254968 -7.9000095832 7.4903738692 0.1545328780 -7.6213725350 7.5289932996 0.2749349451 -7.6073358203 7.7831688876 0.6674028842 -7.7512089925 7.7828390460 0.6780854261 -7.7480973483 7.7910209252 0.6811842388 -7.7460035078 7.7167053545 0.6029846513 -7.9025661626 7.8121428023 0.6634073346 -7.8933279115 7.8086618116 0.6664719330 -7.8985806180 7.8118872326 0.6727627966 -7.8965437733 7.7325707905 0.7350331679 -7.8963497690 7.4923822877 0.4674097879 -7.9156587907 7.5654095890 0.4755231954 -7.9248625537 7.5697227114 0.4944786596 -7.9188770540 7.5776040257 0.4883491056 -7.9302512549 7.4421579500 0.5182856497 -8.0392281150 7.4539974107 0.5329251716 -8.0526948562 7.6392606961 0.6314503519 -8.0032985520 7.6468739245 0.6350123769 -8.0102913435 7.6911963495 0.4608483524 -8.1080251546 7.6979558929 0.4718046734 -8.1106927543 7.6547533128 0.6387860263 -8.0175801012 7.7044796985 0.4824757926 -8.1134262329 7.5482911775 0.7378896077 -8.0923260299 7.6632473124 0.6430370258 -8.0255405496 7.5483737154 0.7247749639 -8.1025450276 7.6728728156 0.6481609720 -8.0347268650 7.6127495170 0.7535044867 -8.0944827969 7.6096928767 0.6305881683 -8.2196875784 7.7131010592 0.5639737706 -8.2043018168 7.6210221773 0.6447676015 -8.2321247984 7.7748120262 0.6743960830 -8.1402086986 7.7378693397 0.7230352817 -8.1423857531 7.5707163148 0.0823295317 -7.7197991476 7.5774725124 -0.0167327878 -7.6619070410 7.4095659742 0.0661340887 -7.5692491951 7.4935883633 0.0135614521 -7.5705575663 7.4866698714 0.0160703414 -7.5651402056 7.4202756344 -0.0371321519 -7.5403728165 7.4101512865 -0.0291366943 -7.5481520752 8.0254046188 0.4205464171 -7.9885616976 7.2827055539 0.0454440520 -7.8333379080 7.2824015913 0.0135045310 -7.8756556599 7.2886846390 0.0451342481 -7.8344023297 7.2956098828 0.0106093462 -7.8747275089 7.2883407735 0.1067511634 -7.8944812049 7.2917182605 0.1046585080 -7.8958575844 7.2951586226 0.1077750923 -7.8949378212 7.2986452634 0.1057276551 -7.8962785658 7.2989126789 0.1110218777 -7.8940064393 7.3025827974 0.1090139600 -7.8953929415 7.3254059927 0.1307973368 -7.8295107631 7.3337803177 0.1367568296 -7.8318710172 7.1395504217 0.8110830954 -7.4761221266 7.5301823417 0.3336655864 -7.8767738771 7.5750532163 0.5735931314 -8.2596640383 7.5676674274 0.5772679624 -8.2541315369 7.7015529702 0.0587322349 -8.1141785899 7.6827948875 0.0657725550 -8.0678551257 7.6926384332 0.0708798135 -8.0682630397 7.6865185597 0.0719308047 -8.0632651359 7.7696571937 0.1117289986 -8.1323312738 7.7777921206 0.1254051349 -8.1316424532 7.6355146771 0.1780057219 -8.1437413735 7.6401560033 0.1821053693 -8.1444422220 7.6313895889 0.0848565990 -7.6171610806 7.6854178843 0.1884257785 -7.6266119552 7.8661126671 0.5990149386 -8.1179023004 7.8419436582 0.5879938467 -8.0247028089 7.8380387100 0.4654026413 -8.0943987977 7.8371698113 0.4608368665 -8.0990277183 7.8338927505 0.4579641131 -8.0940966497 7.7952844801 0.3901330470 -8.1598496520 7.7838994600 0.3758289354 -8.1583850027 7.2042248177 0.7598148184 -7.8577242931 7.2041324114 0.7479489472 -7.8614023537 7.7687090521 0.6303516794 -7.9903477403 7.6822339250 0.5707251258 -7.9203744114 7.6752344724 0.5740618618 -7.9133829233 7.2404006445 0.7916781808 -7.4990949537 7.2478056361 0.7909599610 -7.4962244277 7.1847837385 0.1951195565 -7.7887580409 7.2555764762 0.2045850607 -7.8938236285 7.3540754127 0.0552384983 -7.5185759676 7.3853755412 0.0973237598 -7.5409441912 7.6297577545 -0.0415398401 -7.7405211063 7.5834768540 -0.0014067192 -7.7824316049 7.6452956125 0.0010728715 -7.8845473540 7.6791373977 -0.0167380385 -7.8722408886 7.6778791082 -0.0159697052 -7.8811993374 7.4589057845 0.7965975029 -7.4424803721 7.3078074605 0.8327512088 -7.5477004446 7.7080371453 0.1749755490 -7.7154399377 7.7267418710 0.1101135602 -7.7537483112 7.7285409344 0.1091410866 -7.7592923135 7.7241274984 0.1046414861 -7.7549994863 7.6151124697 0.1084302470 -7.7552488729 7.5502621208 0.0834953130 -8.1969271105 7.3608280736 0.7603001904 -7.9693240214 7.3516325201 0.7713335730 -7.9583833119 7.3045926026 0.8773391511 -7.9470729156 7.6707878976 0.7221635103 -7.6146605200 7.6722296324 0.7193978562 -7.5375044462 7.8232708426 0.1483661122 -8.2443845947 7.3175471494 0.7296478066 -7.7708415788 7.3758216920 0.8546993795 -7.7390772437 7.3833085790 0.8568577993 -7.7518485518 7.3547383529 0.8326328672 -7.7664075483 7.1236356601 0.1173905482 -7.7048662146 7.1860104022 0.0511044073 -7.7896980449 7.6937945574 0.8805140060 -8.0035817094 7.6868591120 0.8826013440 -7.9938897740 7.7877851483 0.8497253383 -7.9616513964 7.8416573110 0.6379727663 -7.9434149148 7.8400784074 0.6443905412 -7.9480895011 7.8424224865 0.6493169066 -7.9510414009 7.8604760187 0.3636791968 -8.0883330495 7.4081533098 -0.0380021193 -7.4522685437 7.7157872478 0.0318300790 -8.0019842467 7.7169074658 0.0268359380 -8.0090721741 7.7947489868 0.0285902900 -8.1745498658 7.8118676880 0.0134140658 -8.1293272051 7.8110017760 0.0158271091 -8.1194887302 7.2894076561 0.0847822006 -7.9548463559 7.3438830537 0.2594191629 -7.9129694967 7.6974407564 0.8445147900 -8.1188130945 7.6972384590 0.8530698295 -8.1178234998 7.6222135181 0.8728634611 -8.0887864452 7.6210873970 0.8748864512 -8.0843077897 7.6232781388 0.8803815789 -8.0787367363 7.5786104483 0.4077942775 -7.4734750790 7.4259416142 0.5115016509 -7.3381621498 7.6221635337 0.1134331060 -8.3456315009 7.6302510685 0.1240061339 -8.3379963612 7.6323347144 0.1288704137 -8.3326566252 7.6348428174 0.1328057592 -8.3292354087 7.6379078640 0.1361769170 -8.3273146903 7.6417487082 0.1392100552 -8.3267735701 7.7085581126 0.0127860907 -7.9340075299 7.6986621123 0.0102010480 -7.9263914455 7.7278870837 0.0200335077 -7.9459026984 7.6817966536 0.2920967216 -8.3062992288 7.2323148763 0.4205958558 -7.8631549341 7.1634082985 0.5434293712 -7.7177091214 7.1550820970 0.5306871170 -7.7195477241 7.3009456363 0.5817732736 -7.7617279211 7.3263048402 0.6613558267 -7.8123282144 7.3289168514 0.6580763412 -7.8139942804 7.3655835370 0.4380832559 -7.9833645031 7.4258240160 0.3557765596 -7.4361218591 7.3412730287 0.2295531666 -7.4883152898 7.5326420963 0.7203808022 -7.4899677768 7.6197504284 -0.0112924440 -7.6788366309 7.2310277813 0.3393651889 -7.5719462810 7.2250623421 0.3362411951 -7.5690005581 7.7286571070 -0.0583470899 -7.7962047686 7.4314765011 0.8532722705 -7.8045417819 7.4250444628 0.8469002744 -7.8034294918
        </DataArray>
      </Points>
      <Cells>
        <DataArray type="Int32" Name="connectivity" format="ascii">
 0 1 2 3 4 5 6 7 8 9 10 11 12 13 14 15 16 17 18 19 20 21 22 23 24 25 26 27 28 29 30 31 32 33 34 35 36 37 38 39 40 41 42 43 44 45 46 47 48 49 50 51 52 53 54 55 56 57 58 59 60 61 62 63 64 65 66 67 68 69 70 71 72 73 74 75 76 77 78 79 80 81 82 83 84 85 86 87 88 89 90 91 92 93 94 95 96 97 98 99 100 101 102 103 104 105 106 107 108 109 110 111 112 113 114 115 116 117 118 119 120 121 122 123 124 125 126 127 128 129 130 131 132 133 134 135 136 137 138 139 140 141 142 143 144 145 146 147 148 149 150 151 152 153 154 155 156 157 158 159 160 161 162 163 164 165 166 167 168 169 170 171 172 173 174 175 176 177 178 179 180 181 182 183 184 185 186 187 188 189 190 191 192 193 194 195 196 197 198 199 200 201 202 203 204 205 206 207 208 209 210 211 212 213 214 215 216 217 218 219 220 221 222 223 224 225 226 227 228 229 230 231 232 233 234 235 236 237 238 239 240 241 242 243 244 245 246 247 248 249 250 251 252 253 254 255 256 257 258 259 260 261 262 263 264 265 266 267 268 269
        </DataArray>
        <DataArray type="Int32" Name="offsets" format="ascii">
 1 2 3 4 5 6 7 8 9 10 11 12 13 14 15 16 17 18 19 20 21 22 23 24 25 26 27 28 29 30 31 32 33 34 35 36 37 38 39 40 41 42 43 44 45 46 47 48 49 50 51 52 53 54 55 56 57 58 59 60 61 62 63 64 65 66 67 68 69 70 71 72 73 74 75 76 77 78 79 80 81 82 83 84 85 86 87 88 89 90 91 92 93 94 95 96 97 98 99 100 101 102 103 104 105 106 107 108 109 110 111 112 113 114 115 116 117 118 119 120 121 122 123 124 125 126 127 128 129 130 131 132 133 134 135 136 137 138 139 140 141 142 143 144 145 146 147 148 149 150 151 152 153 154 155 156 157 158 159 160 161 162 163 164 165 166 167 168 169 170 171 172 173 174 175 176 177 178 179 180 181 182 183 184 185 186 187 188 189 190 191 192 193 194 195 196 197 198 199 200 201 202 203 204 205 206 207 208 209 210 211 212 213 214 215 216 217 218 219 220 221 222 223 224 225 226 227 228 229 230 231 232 233 234 235 236 237 238 239 240 241 242 243 244 245 246 247 248 249 250 251 252 253 254 255 256 257 258 259 260 261 262 263 264 265 266 267 268 269 270
        </DataArray>
        <DataArray type="UInt8" Name="types" format="ascii">
 1 1 1 1 1 1 1 1 1 1 1 1 1 1 1 1 1 1 1 1 1 1 1 1 1 1 1 1 1 1 1 1 1 1 1 1 1 1 1 1 1 1 1 1 1 1 1 1 1 1 1 1 1 1 1 1 1 1 1 1 1 1 1 1 1 1 1 1 1 1 1 1 1 1 1 1 1 1 1 1 1 1 1 1 1 1 1 1 1 1 1 1 1 1 1 1 1 1 1 1 1 1 1 1 1 1 1 1 1 1 1 1 1 1 1 1 1 1 1 1 1 1 1 1 1 1 1 1 1 1 1 1 1 1 1 1 1 1 1 1 1 1 1 1 1 1 1 1 1 1 1 1 1 1 1 1 1 1 1 1 1 1 1 1 1 1 1 1 1 1 1 1 1 1 1 1 1 1 1 1 1 1 1 1 1 1 1 1 1 1 1 1 1 1 1 1 1 1 1 1 1 1 1 1 1 1 1 1 1 1 1 1 1 1 1 1 1 1 1 1 1 1 1 1 1 1 1 1 1 1 1 1 1 1 1 1 1 1 1 1 1 1 1 1 1 1 1 1 1 1 1 1 1 1 1 1 1 1 1 1 1 1 1 1 1 1 1 1 1 1
        </DataArray>
      </Cells>
      <PointData Scalars="overlap">
        <DataArray type="Float32" Name="overlap" format="ascii">
 0.0001537387 0.0000199144 0.0001137748 0.0001540321 0.0000513602 0.0000762474 0.0000426842 0.0001241424 0.0000523559 0.0002457719 0.0003312275 0.0000221876 0.0000572668 0.0000260130 0.0003232229 0.0000122701 0.0002346618 0.0000987030 0.0001553176 0.0003383212 0.0001900281 0.0002820733 0.0002251166 0.0002995214 0.0002379557 0.0001112813 0.0004392432 0.0004525517 0.0001898390 0.0000767301 0.0001032342 0.0000308759 0.0002496741 0.0001810635 0.0001978313 0.0000807759 0.0002623601 0.0002508590 0.0005624184 0.0000656413 0.0002175409 0.0000826473 0.0001275723 0.0001797936 0.0002100528 0.0003820244 0.0001657164 0.0000509651 0.0001763402 0.0000507095 0.0000264540 0.0000059152 0.0000137909 0.0000937785 0.0003017262 0.0001490585 0.0000379796 0.0001295489 0.0000265186 0.0000667898 0.0000545928 0.0002107756 0.0000229511 0.0000010378 0.0001222707 0.0000236114 0.0000220287 0.0001638147 0.0000616230 0.0001379096 0.0000742123 0.0000840702 0.0002185639 0.0001609955 0.0000307537 0.0000065723 0.0000010125 0.0000416174 0.0000487191 0.0000540340 0.0000163562 0.0000427966 0.0000070001 0.0000063106 0.0001010138 0.0000739718 0.0000514495 0.0000626823 0.0000328675 0.0000374431 0.0000247340 0.0000609175 0.0000006384 0.0000224207 0.0000752595 0.0000905885 0.0001035404 0.0000871722 0.0000472086 0.0001058568 0.0000052886 0.0000504270 0.0000070678 0.0000477832 0.0000173750 0.0000493741 0.0000200418 0.0000076169 0.0000923296 0.0000470657 0.0000182970 0.0000068627 0.0000903301 0.0000139683 0.0000041415 0.0000889495 0.0000023132 0.0000353671 0.0000511449 0.0000489603 0.0001842685 0.0000266011 0.0002608129 0.0001415588 0.0001409860 0.0001206532 0.0000616256 0.0001043053 0.0000683310 0.0000029151 0.0000188698 0.0000550947 0.0001854084 0.0000312777 0.0001242359 0.0000236345 0.0000430774 0.0002521750 0.0000460777 0.0000656141 0.0000527213 0.0001055178 0.0002702939 0.0001433159 0.0000010074 0.0000246231 0.0000256595 0.0000906606 0.0000019273 0.0000204525 0.0000730140 0.0000009806 0.0000315866 0.0000575606 0.0000550793 0.0000029636 0.0000156888 0.0000092227 0.0000136192 0.0000316455 0.0000489077 0.0000007604 0.0000145036 0.0000300040 0.0000138891 0.0000781453 0.0000145836 0.0001017511 0.0000654891 0.0000563279 0.0000252012 0.0000335013 0.0000899306 0.0000387463 0.0000069319 0.0002089289 0.0000321671 0.0001934467 0.0000082248 0.0000550708 0.0000294512 0.0001288992 0.0000966116 0.0001299081 0.0000705012 0.0000568339 0.0001035667 0.0003049621 0.0000373204 0.0000273026 0.0000343415 0.0000446821 0.0000526215 0.0001412640 0.0001886797 0.0000122029 0.0000310860 0.0000097292 0.0000048745 0.0000099104 0.0000002815 0.0000036577 0.0000232441 0.0000064717 0.0000011668 0.0000206913 0.0000620619 0.0000331719 0.0000331388 0.0000051865 0.0002483768 0.0000407987 0.0000733863 0.0000419085 0.0000476269 0.0000193112 0.0000927688 0.0000490349 0.0000397391 0.0001300027 0.0000388647 0.0001134276 0.0001283108 0.0000125121 0.0000401092 0.0000019626 0.0000163040 0.0000177855 0.0000367727 0.0000021419 0.0000807722 0.0000301616 0.0000170357 0.0000283412 0.0000455908 0.0000237936 0.0000310008 0.0000395586 0.0000344488 0.0000027385 0.0000142875 0.0000030551 0.0000577353 0.0000207810 0.0000455344 0.0000749346 0.0000381896 0.0000163099 0.0000133461 0.0000235497 0.0000261130 0.0000068167 0.0000358662 0.0000344653 0.0000181043 0.0000553863 0.0000166152 0.0000426561 0.0000090151 0.0000038284 0.0000184179 0.0000303944 0.0000196251 0.0000092973 0.0000430481 0.0000180915 0.0000283026 0.0000793340 0.0000152372 0.0000632483
        </DataArray>
        <DataArray type="Float32" Name="contact normal" NumberOfComponents="3" format="ascii">
 0.5121747140 -0.0315375912 -0.8583020696 -0.5630807547 0.7762505399 -0.2835051375 0.4939977900 0.8060319191 0.3260041855 -0.5400382301 0.7714184179 -0.3365595558 -0.6633226955 0.7382400121 -0.1224936169 -0.7117405565 0.0619819217 -0.6997025236 -0.6135212337 0.0156145988 -0.7895238312 0.2168800347 -0.6527576813 -0.7258584298 -0.7733413261 0.6338899809 -0.0112554639 -0.7306380418 0.6820075261 -0.0321525462 -0.2946397388 -0.9341304820 -0.2014638106 -0.3197646545 -0.8253651034 -0.4653203324 0.6156366322 -0.5470235532 0.5672360790 0.5993581945 -0.5721399617 0.5598442809 0.6555174505 -0.4817690320 0.5815457608 -0.7901262135 0.1549297362 -0.5930407604 -0.7637885171 0.0055376221 -0.6454428215 -0.0770956604 -0.2344505274 0.9690661532 -0.9483381003 0.2952103167 -0.1162140970 0.9617055966 -0.1803534735 0.2063854888 0.9793430743 -0.1613739538 0.1218424800 -0.9754032998 -0.2176772017 0.0347136643 -0.9719422153 -0.2351895618 0.0037683175 -0.9407114889 0.1058571393 0.3222672194 -0.9289862589 0.3496335975 0.1214120191 0.9580795651 0.0470331561 0.2826153380 0.9407116219 -0.0767399924 0.3304127995 -0.0199569605 -0.6148888624 0.7883612158 0.0488704299 -0.6609856729 0.7488054629 0.1935553962 -0.9795503265 0.0549314711 0.1935895688 -0.9795431953 0.0549382139 0.2591501222 -0.9634519432 0.0678348531 0.3370309018 0.9414832519 0.0044110748 0.0731027268 0.6647272016 -0.7435010012 0.1052333021 0.6326345604 -0.7672675316 -0.6184504810 -0.0590582769 -0.7836013798 -0.7677037575 0.5766138595 0.2795485606 -0.4297943607 0.5343998768 0.7278005078 -0.3663052916 0.5555894340 0.7464186588 -0.4059738273 0.5632753045 0.7196569898 0.8494391045 0.1844281014 0.4944082151 0.2311603715 -0.7710748754 0.5933029741 0.3056830985 -0.7591140013 -0.5747206072 0.3114862036 -0.7525126093 -0.5802595263 0.4016817065 -0.6879870086 -0.6044217755 0.3854626639 -0.7005345372 -0.6005579880 0.3741839937 -0.7090068244 -0.5977421365 -0.0054701826 0.8772953054 -0.4799198102 0.7762046763 -0.4347641180 0.4566031781 -0.8320955829 0.2658186438 -0.4867826923 -0.8278577439 0.2464477342 -0.5038998612 -0.6585338195 0.7057517427 -0.2612425810 -0.8268261220 0.3099068154 -0.4693786634 -0.8266493403 0.2773463608 -0.4896221648 0.4349128495 0.4756482871 0.7645976199 -0.2550152520 -0.3443387606 -0.9035474748 0.4920295879 -0.8640178160 -0.1066775433 -0.9343553613 0.3150466570 -0.1665102480 -0.7903788778 0.5788412317 0.2006092173 -0.6766030774 -0.1506324330 -0.7207760719 -0.5493854938 -0.1255733122 -0.8260792471 0.4985569808 -0.7653427533 0.4070520937 -0.8488963413 -0.0619459113 -0.5249168561 0.8439685281 -0.3888755990 0.3694494445 0.8482023704 -0.3830376151 0.3658345586 -0.7001941496 0.7138238201 0.0135538422 0.1158558644 -0.4822012811 0.8683659040 0.1835491524 0.5544808212 0.8117023639 -0.2426788431 -0.8514822789 0.4648493388 0.7999506970 -0.3000426072 0.5196665433 -0.4283576099 0.6500648012 -0.6276348559 0.8167224105 0.5192336490 -0.2517159548 -0.9520638856 -0.2171738666 0.2154294999 -0.9379475981 -0.2088718967 0.2768155234 0.0242668667 0.8945570268 0.4462945720 -0.4026264218 0.6532721627 -0.6411922067 -0.3549423415 0.6598325877 -0.6622966785 -0.4026657340 0.6532826092 -0.6411568756 -0.3551920714 0.6598041623 -0.6621911052 -0.4026805228 0.6532802720 -0.6411499691 -0.4025903234 0.6532945257 -0.6411920884 -0.4026845391 0.6532796371 -0.6411480934 -0.4026845594 0.6532796339 -0.6411480840 -0.4027791354 0.6532646807 -0.6411039113 0.7679175355 -0.5208875376 0.3727986479 0.7698122215 -0.5143854758 0.3778845405 -0.2928477110 -0.9085892665 -0.2978351272 0.1716773878 -0.4688816215 -0.8664161238 -0.3482780905 -0.2065882871 -0.9143432896 0.6169656858 0.0090209263 0.7869383492 0.6172789016 0.0086564873 0.7866967795 0.6174117842 0.0085021339 0.7865941790 0.6172342582 0.0087084403 0.7867312334 0.6178563299 0.0079840748 0.7862504755 0.6176713426 0.0081998379 0.7863935880 0.6177599073 0.0081059420 0.7863249905 0.6177415029 0.0083396120 0.7863370057 0.6173376555 0.0088667487 0.7866483331 -0.6242030896 -0.1962132313 -0.7562214429 0.6185059718 0.0095231557 0.7857223888 -0.5810271589 -0.0888091234 -0.8090243384 -0.5848132626 -0.0822591695 -0.8069862929 -0.5683360550 -0.1080987083 -0.8156646357 -0.3119573971 -0.2340322201 -0.9208211022 0.8476333992 0.5294990378 -0.0338878951 0.8547882276 0.4874610571 -0.1780977364 -0.3630339675 0.4770511298 -0.8003927524 -0.6173475736 -0.0032922521 -0.7866836305 -0.6181468650 0.0002623046 -0.7860625830 -0.6379268623 0.0259726631 -0.7696588460 -0.6184917302 0.0011844496 -0.7857904153 0.6652504664 -0.7326817459 0.1435941367 -0.7304145098 0.4990647147 -0.4662928849 0.0105228051 0.5440268382 0.8390018295 -0.2771572842 -0.9605098733 0.0245890837 0.1333982028 0.2529081639 -0.9582496440 0.1517577784 0.3143424450 -0.9371010639 0.1836326944 0.3202953481 -0.9293491935 0.6554672521 0.7476474741 -0.1067049008 -0.7391216061 0.2086858436 0.6404291297 -0.7413127464 0.2069061040 0.6384710456 -0.7365296598 0.2116006982 0.6424556052 0.6543026969 -0.6827512456 0.3251749031 0.0982283608 0.9504140147 -0.2950667547 -0.8145658416 -0.4744284998 -0.3337665176 -0.4747019446 0.6317357881 -0.6128359959 -0.4410286369 0.5975564929 -0.6696416797 0.7715365429 -0.0921794030 0.6294714613 0.8280557285 -0.1235227748 0.5468691202 -0.4627928861 -0.4786863423 -0.7461113390 -0.4629969369 -0.4786120497 -0.7460324003 -0.8156427666 0.3940849992 -0.4235845733 -0.8156468053 0.3940933087 -0.4235690653 -0.4631314944 -0.4784250261 -0.7460688395 -0.8156503827 0.3941006688 -0.4235553283 0.8491859249 -0.0468052558 0.5260157156 -0.4634630482 -0.4781773175 -0.7460217530 0.3077704719 -0.9451434948 0.1094582609 -0.4643597782 -0.4783876322 -0.7453289675 0.1923915936 -0.8957545239 0.4007609107 0.6337278523 0.0447496751 0.7722606268 -0.6605728758 0.3599503561 0.6588468843 0.7075339555 0.2237669706 0.6703163766 -0.8930319829 0.3749951541 0.2487418579 -0.4922595280 -0.7031632590 -0.5130711337 -0.3859366694 0.2771248747 0.8799174342 -0.9108469058 0.4126360437 -0.0094556690 -0.0942590144 -0.3930385901 -0.9146780334 -0.5431045303 0.0133004419 -0.8395597462 -0.5963840464 0.0559530827 -0.8007467276 0.6000899875 0.3671112243 -0.7107189008 0.6151700829 0.1465259056 -0.7746585881 -0.8588547618 0.4658918863 0.2128690875 -0.1861546554 0.1580099631 -0.9697315587 0.1962266622 0.9643199086 0.1777138455 -0.1466125431 0.1110014934 -0.9829463010 0.2073702230 0.9620721747 0.1772419850 0.0835192409 -0.3847534546 0.9192330040 0.0877178865 -0.3889533090 0.9170719142 0.1066533293 -0.3861478718 0.9162504507 0.1157437000 -0.3940116985 0.9117884499 0.1122566068 -0.3904839735 0.9137399634 0.1196721756 -0.3975875336 0.9097267301 -0.2630807294 -0.3320921248 -0.9058164000 0.3965188238 -0.5211966374 -0.7557293746 -0.4962420116 0.4146058163 -0.7627882295 -0.0997872126 0.6644005822 0.7406850739 0.5749048098 0.7774012493 0.2552092422 0.5221816967 0.8240387305 0.2197417718 0.0535006582 0.8946804173 0.4434914096 -0.4703513646 0.6679715365 -0.5767006331 -0.4082311388 0.7002797665 -0.5856240995 -0.4319509327 0.6895168923 -0.5813646420 -0.8549436363 0.4745744978 -0.2094049303 -0.8381953764 0.5124156951 -0.1867047575 0.5322764595 -0.6375955966 0.5569143793 0.5345756287 -0.6285627553 0.5649227911 -0.7788307747 0.6261967362 0.0360592833 -0.2749167627 -0.7750749214 0.5689285015 -0.5343403732 -0.8045249465 0.2592681546 0.1096939996 -0.5607275447 -0.8207020453 -0.7661901264 0.6380902313 0.0761153522 -0.8109449676 0.4159212751 -0.4115552849 -0.8858535005 0.3062935361 -0.3484936806 -0.6741288682 0.6641181218 0.3232605595 -0.7063117587 0.5989151454 0.3773915051 0.4159404569 0.0392582156 0.9085440709 -0.2576722976 -0.3751553904 0.8904287844 -0.8647468210 0.4043719238 -0.2978192116 -0.3883848075 0.5810064588 -0.7152543157 -0.4239087073 0.6143955996 -0.6654468086 -0.3368162139 0.2113189601 0.9175506172 -0.3357956077 0.2056642534 0.9192080965 0.6239878773 0.7789490807 -0.0622692437 -0.5507570443 0.0652419162 0.8321118738 -0.5711041120 -0.2223742937 -0.7901833754 -0.2964575871 -0.1988567015 -0.9341139713 -0.4496853265 0.4998089254 -0.7402527577 0.8816087721 -0.3957258389 0.2572295345 0.4676758871 -0.6905359814 0.5517602043 -0.9527840632 -0.0635608531 0.2969217858 -0.9585474814 -0.1958326649 0.2069693052 -0.2479498930 0.0361113870 -0.9680995911 0.8954577672 0.4135772707 0.1646488030 -0.3400313933 -0.8727867134 -0.3501742487 -0.8012377110 0.5070823429 -0.3176249801 -0.7193947660 0.5847420278 -0.3748972279 -0.7970600519 0.4830193692 -0.3624742234 0.9266110232 -0.2475517530 0.2830373497 0.4383466061 -0.7296722562 0.5248148735 -0.8111847527 -0.1522735718 -0.5646167340 -0.8200641232 -0.1359332410 -0.5558929643 -0.5060261548 -0.8621516463 -0.0251409914 0.8237394126 0.0840858005 0.5606986341 -0.0581169310 -0.1303003561 -0.9897697912 -0.6817016836 0.6149445469 -0.3963912447 -0.3540691511 0.8993085632 -0.2566693291 -0.9470742666 -0.1093239369 -0.3018254633 -0.9216589951 0.1276613741 -0.3663976941 0.4845530827 -0.4199903338 0.7673437493 -0.5394409571 0.4900344023 -0.6847406358 -0.5312789097 0.3349951888 -0.7781522625 0.8282429283 -0.4426634997 0.3436024998 0.7645767790 0.1312477372 0.6310280346 -0.8992965548 0.0815339493 -0.4296718768 0.1320448669 -0.5639315649 -0.8151965059 0.1325502043 -0.5633401852 -0.8155233161 0.1360149224 -0.5603250687 -0.8170286153 -0.4599296506 0.8803863743 0.1156916089 -0.2159755885 0.8334616784 0.5086218397 -0.6184194184 0.4667471877 -0.6322218644 -0.6220619231 0.4523459345 -0.6390791183 0.7312865533 0.4035339619 0.5498911880 -0.3152459617 0.8527640428 -0.4164294309 -0.3180517453 0.8741414527 -0.3670419703 0.3995733766 0.7250014895 0.5609937228 -0.3728476175 -0.9138651104 0.1607333636 0.9868497730 -0.0357001095 -0.1576484305 0.7664986344 0.3080461123 -0.5635489651 0.5388436890 -0.7090297093 0.4548893823 0.5387671109 -0.7090836893 0.4548959461 0.5759794464 -0.6811731464 0.4519411709 -0.8022527661 0.3523777903 -0.4818925110 -0.4443559832 0.6105409567 -0.6555818030 0.5097949571 -0.7253992848 0.4624986263 0.5099606797 -0.7251929851 0.4626394272 0.5099376592 -0.7251792037 0.4626864016 0.5099285453 -0.7251788178 0.4626970508 0.5099405479 -0.7251784022 0.4626844741 0.5099751658 -0.7251771836 0.4626482278 -0.4911799376 0.8119185334 -0.3154846495 -0.4402306199 0.8884952415 -0.1295114170 -0.3810729352 0.9178077700 -0.1114105715 0.8375488160 -0.2325581575 -0.4943972938 0.3909906866 -0.8657576253 0.3123940095 0.5238389154 -0.0991460557 -0.8460276889 0.4538911906 -0.2804519869 -0.8457715236 -0.3835842208 -0.9024976021 0.1958602150 0.4177982346 -0.0684367018 0.9059586376 0.4290350553 -0.1064582855 0.8969925054 0.3013888964 -0.2446841241 0.9215717078 -0.6249381976 -0.0330593987 -0.7799739260 0.6951643691 0.3089454279 0.6490756678 -0.5808366698 -0.0767125373 -0.8103974023 -0.8933085901 0.2697781169 0.3594711818 -0.5553622123 0.5677626307 -0.6076334490 -0.5938697497 0.5468011172 -0.5901925606 -0.1739661656 0.2701046194 -0.9469843018 0.4988698795 -0.3224184284 0.8044720010 0.4938746824 -0.3713323775 0.7862569958
        </DataArray>
        <DataArray type="Float32" Name="contact force" NumberOfComponents="3" format="ascii">