<?xml version="1.0"?>
<VTKFile type="UnstructuredGrid" version="0.1" byte_order="LittleEndian">
  <UnstructuredGrid>
    <FieldData>
      <DataArray type="Float32" Name="TIME"  NumberOfTuples="1" format="ascii"> 2.2500000000 </DataArray>
      <DataArray type="Int32"   Name="STEP"  NumberOfTuples="1" format="ascii"> 225000 </DataArray>
    </FieldData>
    <Piece NumberOfPoints="277" NumberOfCells="277">
      <Points>
        <DataArray type="Float32" NumberOfComponents="3" format="ascii">
 7.5800092886 0.1541394034 -8.4030123160 7.7058102249 0.0981834731 -8.3957804467 7.6153519406 0.0976560440 -8.5213820955 7.7145302517 0.0981338133 -8.4144364286 7.7395683095 0.0882513053 -8.5693985773 7.7484050912 0.3151596501 -8.3885294298 7.7589889704 0.3114713233 -8.3981021501 7.7557142655 0.4017547459 -8.4013703630 7.8317302579 0.1721420299 -8.6246918915 7.8389174456 0.1794539680 -8.6257812899 7.8016583592 0.4294870185 -8.5009986663 7.8062175261 0.4320461226 -8.5155854864 7.7585103637 0.3786173140 -8.6756137888 7.7670224518 0.3777596519 -8.6867596617 7.7841998453 0.3958142717 -8.6973990685 7.9217438522 0.3866501973 -8.5790534920 7.9316158466 0.3804279287 -8.5898871626 7.9360131304 0.3793004460 -8.6875982669 8.2490672743 0.2574410537 -8.2895487233 8.1828111810 0.3183647321 -8.3663861399 8.1820260970 0.3146978291 -8.3752863294 8.2520246365 0.5241077453 -8.4370889384 8.2503624068 0.5172293944 -8.4581790893 8.2493752439 0.2999576376 -8.5076011225 8.2485647124 0.3141393250 -8.5144460096 8.1913645802 0.4822887047 -8.5579899565 8.1871986317 0.4623266761 -8.5440885748 7.4197606118 0.7065739142 -8.1701518602 7.4330285683 0.7001739452 -8.1766916406 7.3791054085 0.7824303945 -8.0026301447 7.3896565343 0.7843281435 -8.0064246279 7.3784307819 0.7827731290 -7.9907929283 7.3896121273 0.7849009978 -7.9952888699 7.4101562569 0.6185848460 -8.0879713664 7.4114658638 0.6747339705 -7.9540600557 7.4187776090 0.6696580226 -7.9583602950 7.7922976849 0.7053238961 -8.3140046788 7.8728740078 0.7188421158 -8.3951673026 7.7739504872 0.7047632655 -8.4318109528 7.7771871773 0.7091791467 -8.4354185467 7.7715385891 0.7109187157 -8.4377149459 7.6448618485 0.7134533050 -8.3611323681 7.8666285860 0.8286973153 -8.4399001349 7.7184355668 0.7991027448 -8.3365491309 7.7124961886 0.8002548230 -8.3409901472 7.7204709299 0.8049139656 -8.3418456418 7.7149838409 0.8063635897 -8.3466645077 7.7098966262 0.8084451249 -8.3521972568 7.7152545163 0.3506389443 -7.9337566274 7.5349917658 0.5376824240 -7.9937534991 7.7805642810 0.4318327975 -7.9909363480 7.7867784673 0.4327703021 -8.0016286925 7.7706588714 0.3498340028 -8.0483981415 7.7907474498 0.4488272287 -8.0000953128 7.7959521868 0.4486146720 -8.0095191382 7.6710241640 0.3633652066 -8.1437295426 7.6539499914 0.6296184356 -7.8609781056 7.6225162639 0.6806630723 -8.0690032491 7.8470263034 0.4426188598 -8.1411339481 7.8541581122 0.4543221017 -8.1419845401 7.8361395608 0.7316545359 -8.0237624845 7.8451016847 0.7511341854 -8.0350714187 7.7388381038 0.8300480855 -8.1702253609 7.9611328444 0.7007054141 -8.1774804584 8.1352300261 0.2935746549 -8.3724560721 8.1199606199 0.1453174299 -8.3770864185 7.8087737221 0.0476618982 -8.5310168666 7.8224259925 0.0411744662 -8.5376321723 7.9164348686 0.2141014168 -8.5011558830 7.9946895436 0.3519576302 -8.4798271924 7.8530981970 0.2647365344 -8.3572532170 7.9426456703 0.1639244449 -8.2644382251 7.8304992449 0.1965027598 -8.2773752870 7.4276561849 0.3492462692 -8.2026279388 7.4241431553 0.3429223114 -8.1921943760 7.4309435219 0.3356695139 -8.0947502553 7.4376032947 0.3490403606 -8.0849099418 7.4355847995 0.3598107432 -8.0723283357 7.4416409054 0.3688259955 -8.0668195990 7.4393596130 0.3763756986 -8.0573486010 7.4450871978 0.3834395223 -8.0537607640 7.4427478069 0.3897798352 -8.0454702865 7.4459523638 0.4018810841 -8.0348675431 7.4435832353 0.4083249022 -8.0264702941 7.3933428485 0.4978233261 -8.0945181902 7.3915338258 0.5004470972 -8.0874671449 7.3955691697 0.5058912913 -8.0892107630 7.4647682539 0.5366414537 -7.9654830981 7.4588465294 0.5457817728 -7.9724227406 7.5375827705 0.2771111156 -8.0442655240 7.5874725575 0.2061846363 -8.1547738696 7.5841601601 0.1971322092 -8.1519866732 7.5924847672 0.2074393441 -8.1589737030 7.5792217551 0.1905492800 -8.1478393128 7.5895805109 0.1970856257 -8.1565142626 7.5970032095 0.2104543538 -8.1627610145 7.6012258973 0.2154011805 -8.1663037034 7.6053453601 0.2227253179 -8.1697587270 7.6095874803 0.2332870495 -8.1733001489 7.4927955271 0.1947401444 -7.9976449922 7.6157124991 0.2323238009 -8.1784385571 7.6787218970 0.2248202288 -8.1214772409 7.6841170991 0.2333769850 -8.1264874582 7.6915680167 0.2310598895 -8.1316312267 7.5264758931 0.1223653970 -8.0047495687 7.4820300369 0.0473978854 -8.0326293811 7.4946641116 0.0257877773 -8.0460132723 7.5759121637 -0.0533155509 -8.0520898451 7.6910896843 0.0318513626 -8.1226858265 7.7013259630 0.0524911689 -8.1309234361 7.7060088490 0.0630872685 -8.1346641441 7.7118807507 0.0686533944 -8.1395947791 8.1389885577 0.1730953193 -8.5410947412 8.1970106193 0.1015956296 -8.3685297252 7.7588326658 0.1503925311 -8.0768696696 7.7511829473 0.1998766279 -8.0124263819 7.7631061179 0.1509062516 -8.0776512365 7.7970742487 0.2708742643 -8.0625453458 8.0446307265 0.6667612488 -8.2082922873 8.0443207446 0.6774016319 -8.2050378518 8.0525411319 0.6805351008 -8.2031524981 7.9743296213 0.6038442404 -8.3585481238 8.0696017833 0.6647936363 -8.3512180912 8.0659538388 0.6679018100 -8.3563300009 8.0691947717 0.6741878120 -8.3543028168 7.9895085387 0.7359140458 -8.3510602977 7.7505873290 0.4669618494 -8.3670870723 7.8232689434 0.4756723576 -8.3782267497 7.8276310646 0.4945883699 -8.3721262999 7.8352284843 0.4886548507 -8.3837946480 7.6966131670 0.5190398865 -8.4885398608 7.7001309978 0.5347966932 -8.4905780372 7.7079664814 0.5339263485 -8.5021546172 7.8939127649 0.6330584912 -8.4567123180 7.9013043515 0.6367581921 -8.4638694857 7.9439697077 0.4641289370 -8.5650014390 7.9505827184 0.4751624508 -8.5677177289 7.9089523556 0.6406749643 -8.4713272402 7.9569600363 0.4859100420 -8.5704968995 7.9171928733 0.6450815178 -8.4794675042 7.7997018142 0.7269864245 -8.5521849591 7.9265245468 0.6503837669 -8.4888536349 7.8640875488 0.7560647810 -8.5455650105 7.8582930958 0.6347029512 -8.6721899973 7.9625159808 0.5685928659 -8.6605371353 7.8691969672 0.6491156635 -8.6847405238 8.0253016666 0.6786142363 -8.5967999632 7.8368120512 0.0799832264 -8.1784177134 7.8458251335 -0.0197499207 -8.1219975408 7.6800474354 0.0608267327 -8.0236474872 7.7643319514 0.0088409578 -8.0279673469 7.7575551333 0.0112352898 -8.0223233882 7.6922197145 -0.0427163254 -7.9963905803 7.6818306764 -0.0346929504 -8.0037821622 8.2816187286 0.4245565519 -8.4554592225 7.5459680358 0.0426256430 -8.2843268345 7.5447064299 0.0111756812 -8.3269978629 7.5519185270 0.0423671598 -8.2855551112 7.5579630047 0.0084048676 -8.3264571630 7.5495365595 0.1046950424 -8.3448381637 7.5528881897 0.1026421193 -8.3463326487 7.5563326010 0.1057702993 -8.3454691247 7.5597939584 0.1037630264 -8.3469307061 7.5600900273 0.1090307513 -8.3446012307 7.5637332868 0.1070647519 -8.3461130238 7.5882136880 0.1282065562 -8.2806232350 7.5964863440 0.1342479329 -8.2831395863 7.4080352674 0.8027271957 -7.9135691972 7.7903376212 0.3330013848 -8.3309877540 7.8229528842 0.5779763099 -8.7118944555 7.8156855837 0.5815569346 -8.7061472056 7.9567149134 0.0622049760 -8.5765627503 7.9392163922 0.0685300213 -8.5296484034 7.9490115409 0.0737081976 -8.5302657420 7.9430272999 0.0746553168 -8.5250862302 8.0239459543 0.1158771325 -8.5959314754 8.0320098982 0.1295978760 -8.5952952694 7.8891211200 0.1813920616 -8.6027519857 7.8937149586 0.1855311665 -8.6035295757 7.9003442544 0.0816388256 -8.0774974227 7.9534064834 0.1856907060 -8.0871041624 8.1176821934 0.6035621527 -8.5780387390 8.0962101559 0.5912344524 -8.4843354610 8.0911091564 0.4694905984 -8.5554420946 8.0901428145 0.4649741486 -8.5601019438 8.0870238612 0.4620189805 -8.5551175433 8.0469869087 0.3947743850 -8.6206021509 8.0372287725 0.3881880350 -8.6275585209 8.2221100286 0.0384506720 -8.4245501176 7.4938572908 0.7997570462 -8.2688163006 7.4600895012 0.7541579091 -8.2987826518 7.4598231444 0.7422710220 -8.3024609121 8.0236774028 0.6326740553 -8.4474094696 7.9395828943 0.5715946712 -8.3758072893 7.9327614070 0.5747961729 -8.3685804851 7.5083036500 0.7842931668 -7.9395831291 7.5157904544 0.7835887018 -7.9369296315 7.4483718763 0.1910609397 -8.2351094778 7.5163073895 0.2023277745 -8.3419008212 7.6564477417 0.0914949230 -7.9942853231 7.8960199298 -0.0433453304 -8.2024460736 7.8482963488 -0.0030633879 -8.2425526276 7.9072533540 0.0012129982 -8.3462880416 7.9415509937 -0.0164800442 -8.3351393181 7.7282695175 0.7899563145 -7.8890378555 7.5740589172 0.8264178449 -7.9895270623 7.9736109669 0.1734806184 -8.1767131776 7.9916323740 0.1092321558 -8.2163523022 7.9932891144 0.1083359122 -8.2219534090 7.9890298404 0.1037519864 -8.2175948608 7.8800261541 0.1068298680 -8.2147523233 7.8030294830 0.0870067274 -8.6547295827 7.6146890122 0.7608702387 -8.4120199678 7.5556173130 0.8758433757 -8.3868079832 7.9357348713 0.7190998107 -8.0679882264 7.9393496972 0.7153742894 -7.9909501611 7.9434260743 0.7455149455 -7.9954302540 8.0754619851 0.1560534130 -8.7075168895 8.0763476453 0.1474405591 -8.7219080019 7.5782055384 0.7261872982 -8.2141453322 7.6365470479 0.8512223460 -8.1824215090 7.6436605422 0.8535914542 -8.1953675881 7.6148491733 0.8293587623 -8.2094306936 7.3900981258 0.1118679097 -8.1505625732 7.4504958243 0.0470680334 -8.2379330471 7.8251772558 0.8847036091 -8.5946553774 7.9468387928 0.8824590705 -8.4553507973 7.9401627754 0.8843802814 -8.4454433496 8.0421525598 0.8517795330 -8.4164510353 8.0978580315 0.6401970701 -8.4024341787 8.0961076413 0.6466603107 -8.4069833718 8.0983364310 0.6516379483 -8.4099385526 8.1143672570 0.3678656434 -8.5512774625 7.9742512967 0.0340030648 -8.4651475860 7.9752053109 0.0291053115 -8.4723266348 8.0906532592 0.1831192259 -8.5831387030 8.0668521999 0.0178234922 -8.5953346827 8.0662421864 0.0201057389 -8.5854455522 7.5490496802 0.0834828138 -8.4054765936 7.6035284550 0.2579609409 -8.3629250256 7.9474830841 0.8479470966 -8.5710981186 7.9472515438 0.8564865875 -8.5699943243 7.8729522146 0.8754052746 -8.5386147115 7.8719392156 0.8773643546 -8.5340809673 7.8742504655 0.8828034493 -8.5285036613 7.4187437790 0.0973405088 -8.1357247650 7.8495322210 0.4023810086 -7.9282953961 7.7001852375 0.5033363047 -7.7876194650 7.6310716596 0.5057488955 -8.4859800351 7.8705400377 0.1192737068 -8.8049928682 7.8787699921 0.1298044202 -8.7974520153 7.8809708518 0.1346153067 -8.7921109345 7.8835483492 0.1385242580 -8.7887111046 7.8866442612 0.1418916370 -8.7868337502 7.8904792848 0.1449435472 -8.7863612456 7.9690452314 0.0140545889 -8.3972540073 7.9593819590 0.0113094648 -8.3893984574 7.9879895440 0.0215766855 -8.4095892175 7.8839134410 0.0210928562 -8.3534022181 7.9300937448 0.2978261308 -8.7650669117 8.3618733291 0.3237885916 -8.4020242087 7.4923724144 0.4177414676 -8.3079604010 7.4267869191 0.5382816838 -8.1591115832 7.4184942964 0.5255083042 -8.1608800229 7.5627971083 0.5781012874 -8.2064491629 7.8954664296 0.4006474979 -8.8109254693 7.5862403460 0.6584757300 -8.2567245341 7.5888255563 0.6552348601 -8.2585042563 7.6221231296 0.4376361852 -8.4316122358 7.6643411442 0.2002453675 -7.8920429179 7.6145768412 0.2144663667 -7.9361427015 7.8875685774 -0.0138125774 -8.1400307270 7.4997677436 0.3328739853 -8.0178908253 7.4939071712 0.3296729177 -8.0148204316 7.9934267462 -0.0586492145 -8.2609776821 7.6903585981 0.8509899675 -8.2494321684 7.6840013240 0.8445610411 -8.2482218453
        </DataArray>
      </Points>
      <Cells>
        <DataArray type="Int32" Name="connectivity" format="ascii">
 0 1 2 3 4 5 6 7 8 9 10 11 12 13 14 15 16 17 18 19 20 21 22 23 24 25 26 27 28 29 30 31 32 33 34 35 36 37 38 39 40 41 42 43 44 45 46 47 48 49 50 51 52 53 54 55 56 57 58 59 60 61 62 63 64 65 66 67 68 69 70 71 72 73 74 75 76 77 78 79 80 81 82 83 84 85 86 87 88 89 90 91 92 93 94 95 96 97 98 99 100 101 102 103 104 105 106 107 108 109 110 111 112 113 114 115 116 117 118 119 120 121 122 123 124 125 126 127 128 129 130 131 132 133 134 135 136 137 138 139 140 141 142 143 144 145 146 147 148 149 150 151 152 153 154 155 156 157 158 159 160 161 162 163 164 165 166 167 168 169 170 171 172 173 174 175 176 177 178 179 180 181 182 183 184 185 186 187 188 189 190 191 192 193 194 195 196 197 198 199 200 201 202 203 204 205 206 207 208 209 210 211 212 213 214 215 216 217 218 219 220 221 222 223 224 225 226 227 228 229 230 231 232 233 234 235 236 237 238 239 240 241 242 243 244 245 246 247 248 249 250 251 252 253 254 255 256 257 258 259 260 261 262 263 264 265 266 267 268 269 270 271 272 273 274 275 276
        </DataArray>
        <DataArray type="Int32" Name="offsets" format="ascii">
 1 2 3 4 5 6 7 8 9 10 11 12 13 14 15 16 17 18 19 20 21 22 23 24 25 26 27 28 29 30 31 32 33 34 35 36 37 38 39 40 41 42 43 44 45 46 47 48 49 50 51 52 53 54 55 56 57 58 59 60 61 62 63 64 65 66 67 68 69 70 71 72 73 74 75 76 77 78 79 80 81 82 83 84 85 86 87 88 89 90 91 92 93 94 95 96 97 98 99 100 101 102 103 104 105 106 107 108 109 110 111 112 113 114 115 116 117 118 119 120 121 122 123 124 125 126 127 128 129 130 131 132 133 134 135 136 137 138 139 140 141 142 143 144 145 146 147 148 149 150 151 152 153 154 155 156 157 158 159 160 161 162 163 164 165 166 167 168 169 170 171 172 173 174 175 176 177 178 179 180 181 182 183 184 185 186 187 188 189 190 191 192 193 194 195 196 197 198 199 200 201 202 203 204 205 206 207 208 209 210 211 212 213 214 215 216 217 218 219 220 221 222 223 224 225 226 227 228 229 230 231 232 233 234 235 236 237 238 239 240 241 242 243 244 245 246 247 248 249 250 251 252 253 254 255 256 257 258 259 260 261 262 263 264 265 266 267 268 269 270 271 272 273 274 275 276 277
        </DataArray>
        <DataArray type="UInt8" Name="types" format="ascii">
 1 1 1 1 1 1 1 1 1 1 1 1 1 1 1 1 1 1 1 1 1 1 1 1 1 1 1 1 1 1 1 1 1 1 1 1 1 1 1 1 1 1 1 1 1 1 1 1 1 1 1 1 1 1 1 1 1 1 1 1 1 1 1 1 1 1 1 1 1 1 1 1 1 1 1 1 1 1 1 1 1 1 1 1 1 1 1 1 1 1 1 1 1 1 1 1 1 1 1 1 1 1 1 1 1 1 1 1 1 1 1 1 1 1 1 1 1 1 1 1 1 1 1 1 1 1 1 1 1 1 1 1 1 1 1 1 1 1 1 1 1 1 1 1 1 1 1 1 1 1 1 1 1 1 1 1 1 1 1 1 1 1 1 1 1 1 1 1 1 1 1 1 1 1 1 1 1 1 1 1 1 1 1 1 1 1 1 1 1 1 1 1 1 1 1 1 1 1 1 1 1 1 1 1 1 1 1 1 1 1 1 1 1 1 1 1 1 1 1 1 1 1 1 1 1 1 1 1 1 1 1 1 1 1 1 1 1 1 1 1 1 1 1 1 1 1 1 1 1 1 1 1 1 1 1 1 1 1 1 1 1 1 1 1 1 1 1 1 1 1 1 1 1 1 1 1 1
        </DataArray>
      </Cells>
      <PointData Scalars="overlap">
        <DataArray type="Float32" Name="overlap" format="ascii">
 0.0001616226 0.0000155437 0.0001096009 0.0001601555 0.0000440357 0.0000771196 0.0000415647 0.0001175511 0.0000514660 0.0002449526 0.0003297284 0.0000187313 0.0000572311 0.0000289925 0.0003351192 0.0000155499 0.0002379365 0.0000849003 0.0001514577 0.0003359002 0.0001887406 0.0002746334 0.0002627653 0.0002903835 0.0002278205 0.0001099868 0.0004396083 0.0005328710 0.0002280758 0.0000667896 0.0000267444 0.0000636725 0.0000728451 0.0003046209 0.0002228025 0.0002499081 0.0000950959 0.0002649883 0.0002557921 0.0005627760 0.0000700746 0.0002231177 0.0001046862 0.0001282523 0.0001796195 0.0002087366 0.0003798354 0.0001625062 0.0000525718 0.0001753251 0.0000558715 0.0000324287 0.0000151511 0.0000199588 0.0001008134 0.0003029051 0.0001017036 0.0000371523 0.0001419148 0.0000392262 0.0000508315 0.0000588875 0.0002027077 0.0000446424 0.0001108361 0.0000100552 0.0000050185 0.0000243745 0.0001474809 0.0000672702 0.0001483345 0.0000698742 0.0000978823 0.0000625321 0.0000244766 0.0000055177 0.0000019149 0.0000398767 0.0000488337 0.0000519937 0.0000153741 0.0000406119 0.0000047294 0.0000028139 0.0000103258 0.0001219679 0.0000924030 0.0000667293 0.0000638004 0.0000224787 0.0000421349 0.0000290582 0.0000657100 0.0000046683 0.0000267983 0.0000802132 0.0000957717 0.0001090373 0.0000930966 0.0000419218 0.0001118244 0.0000013769 0.0000456567 0.0000025797 0.0000589780 0.0000226431 0.0000503146 0.0000209365 0.0000029339 0.0000881440 0.0000431781 0.0000145311 0.0000202709 0.0000885034 0.0000076910 0.0000080471 0.0000174519 0.0000214644 0.0000790960 0.0000018897 0.0000720022 0.0000463056 0.0000436581 0.0001792616 0.0000219618 0.0002452808 0.0001416383 0.0001566144 0.0001357578 0.0000802937 0.0001382392 0.0000095197 0.0000729524 0.0000070079 0.0000231781 0.0000556139 0.0001855263 0.0000358136 0.0001239660 0.0000478709 0.0002999664 0.0000511953 0.0000632280 0.0000332616 0.0001075661 0.0003011591 0.0001425335 0.0000279524 0.0000097717 0.0000944311 0.0000072364 0.0000152971 0.0000756488 0.0000031203 0.0000165080 0.0000812926 0.0000213017 0.0000201538 0.0000791283 0.0000112249 0.0000136462 0.0000323100 0.0000469619 0.0000014973 0.0000127572 0.0000408547 0.0000285148 0.0000713586 0.0000129415 0.0001076233 0.0000712496 0.0000654680 0.0000175257 0.0000274223 0.0000838302 0.0000424549 0.0000112138 0.0002089052 0.0000321304 0.0001945003 0.0000105413 0.0000583626 0.0000058297 0.0001365098 0.0000943634 0.0001270953 0.0001236746 0.0000874149 0.0000016353 0.0000045014 0.0002356991 0.0002745280 0.0000353098 0.0000302481 0.0000368971 0.0000387679 0.0000472638 0.0001549782 0.0001299133 0.0000210070 0.0000048536 0.0000155266 0.0000027421 0.0000195297 0.0000335395 0.0000005046 0.0000022932 0.0000352505 0.0000571804 0.0000187104 0.0000391980 0.0000095596 0.0003957770 0.0001868196 0.0000496144 0.0000560003 0.0000126494 0.0000150537 0.0000988934 0.0000831344 0.0000452053 0.0000345135 0.0001386845 0.0000343658 0.0000942291 0.0000225461 0.0001348172 0.0000170556 0.0000448314 0.0000003414 0.0000153206 0.0000166486 0.0000410356 0.0000921507 0.0000418226 0.0000055428 0.0000299923 0.0000419016 0.0000222327 0.0000213592 0.0000395428 0.0000271516 0.0000011114 0.0000123280 0.0000007870 0.0000010688 0.0000504580 0.0000136356 0.0000064811 0.0000465340 0.0000750760 0.0000378498 0.0000156247 0.0000124127 0.0000224482 0.0000301213 0.0000138684 0.0000320400 0.0000006946 0.0000295182 0.0000110034 0.0000156189 0.0000496390 0.0000106433 0.0000407429 0.0000199007 0.0000122542 0.0000064591 0.0000202744 0.0000113794 0.0000048484 0.0000455311 0.0000101752 0.0000217779 0.0000816981 0.0000158433 0.0000663283
        </DataArray>
        <DataArray type="Float32" Name="contact normal" NumberOfComponents="3" format="ascii">
 0.4884408412 -0.0173906402 -0.8724236988 -0.5861317594 0.7665538661 -0.2623827948 0.4631512509 0.8318454765 0.3058169748 -0.5646817437 0.7623469828 -0.3161670542 -0.6712865997 0.7351516332 -0.0944795076 -0.7313117427 0.0659894053 -0.6788435264 -0.6353313183 0.0214314556 -0.7719422315 0.2003853550 -0.6422349822 -0.7398512939 -0.7773784222 0.6287646776 0.0183784926 -0.7355811099 0.6774296170 -0.0030894636 -0.2943429306 -0.9334576738 -0.2049853909 -0.3275891050 -0.8215304788 -0.4666616018 0.6345759008 -0.5499745906 0.5429929795 0.6394395073 -0.5425333302 0.5447703205 0.6744343370 -0.4846259462 0.5570242521 -0.8074581834 0.1570391744 -0.5686387077 -0.7816962740 0.0085044262 -0.6236013229 -0.0438055812 -0.2474044773 0.9679215338 -0.9531042917 0.2902258683 -0.0857971708 0.9682488302 -0.1765556985 0.1769810387 0.9833730247 -0.1564098682 0.0922683448 -0.9726697551 -0.2243342792 0.0598972350 -0.9699952513 -0.2414305709 0.0286442289 -0.9319610017 0.0954781681 0.3497607908 -0.9274773193 0.3417448954 0.1516451403 0.9652630545 0.0500451361 0.2564424300 0.9500422547 -0.0744266727 0.3031177737 0.0190339819 -0.6101135284 0.7920853426 0.0874839124 -0.6550282060 0.7505228940 0.1941619623 -0.9801621098 0.0397915944 0.1944121468 -0.9801107663 0.0398346948 0.1941966357 -0.9801549981 0.0397975677 0.2600890126 -0.9642297430 0.0511342179 0.3304588493 0.9437896954 0.0076131261 0.0481471841 0.6748064879 -0.7364224688 0.0798621725 0.6432248078 -0.7615010703 -0.6398707939 -0.0533252609 -0.7666301479 -0.7632255020 0.5678974223 0.3081872010 -0.4124202113 0.5223774693 0.7463453281 -0.3484865806 0.5437375299 0.7634832033 -0.3889345985 0.5514969664 0.7379572983 0.8617099734 0.1837761822 0.4729505647 0.2526376350 -0.7769258618 0.5766805274 0.2943934292 -0.7496996776 -0.5926912368 0.3000376345 -0.7430060479 -0.5982636799 0.3891023212 -0.6775586248 -0.6241103217 0.3730743663 -0.6902697533 -0.6199541797 0.3619295130 -0.6988580485 -0.6169314837 -0.0284234833 0.8843893686 -0.4658836232 0.7912953681 -0.4352914232 0.4293867921 -0.8470623486 0.2662869328 -0.4599746155 -0.8431850495 0.2471566685 -0.4774437699 -0.6700137951 0.7045951170 -0.2337247000 -0.8415823139 0.3101925908 -0.4421761703 -0.8417698341 0.2778872880 -0.4628198372 0.4531990886 0.4688766409 0.7581327600 -0.2782799940 -0.3341464043 -0.9005034289 0.4928324919 -0.8600142933 -0.1322556251 -0.9404990184 0.3110833782 -0.1367067229 -0.7882107028 0.5710422011 0.2294225198 -0.6954227159 -0.1464496120 -0.7035195501 -0.5713395836 -0.1192328682 -0.8120065291 0.5145913685 -0.7671064007 0.3830711336 -0.8628253077 -0.0610446064 -0.5018027943 0.8605331955 -0.3819321636 0.3370614808 -0.7042381405 0.7087094961 0.0421840207 0.1431684363 -0.4922465248 0.8586012798 0.1857402901 -0.5736090977 0.7977926721 0.2025686504 0.5455830823 0.8132066417 -0.2242228625 -0.8587615786 0.4607088659 0.8159793202 -0.3009631011 0.4935574544 -0.4498144616 0.6550467210 -0.6071085105 0.8061726641 0.5277635695 -0.2674906547 0.0313908395 0.8889639301 0.4569001491 -0.0878714922 0.5911851846 0.8017347930 -0.4246382646 0.6584968975 -0.6213406314 -0.3776096537 0.6656480053 -0.6436797982 -0.4246765175 0.6585066502 -0.6213041503 -0.3778552485 0.6656166623 -0.6435680772 -0.4246910112 0.6585041391 -0.6212969047 -0.4246020910 0.6585195432 -0.6213413519 -0.4246949046 0.6585034644 -0.6212949584 -0.4246948663 0.6585034711 -0.6212949775 -0.4247880350 0.6584873229 -0.6212483971 0.7620336560 -0.5741293920 0.2994664394 0.7815113507 -0.5201660386 0.3444812057 0.7835047781 -0.5137174626 0.3495920928 -0.2953390426 -0.9066302337 -0.3013245248 0.1504854245 -0.4563910717 -0.8769614169 -0.3723833819 -0.1974233849 -0.9068377054 0.6386732342 0.0032887856 0.7694710416 0.6389818889 0.0029294743 0.7692162009 0.6391127723 0.0027773668 0.7691080227 0.6389379293 0.0029806575 0.7692525191 0.6395508150 0.0022666088 0.7687454829 0.6393684976 0.0024793761 0.7688964670 0.6394556714 0.0023869683 0.7688242625 0.6394360189 0.0026203620 0.7688398477 0.6390376923 0.0031408811 0.7691690079 -0.6438279464 -0.1909094010 -0.7409717782 0.6401743072 0.0038165833 0.7682202093 -0.6028611561 -0.0825033953 -0.7935689109 -0.6066318366 -0.0760007376 -0.7913417105 -0.5902433336 -0.1016200820 -0.8008034504 -0.3360152863 -0.2246108353 -0.9146822946 0.8429961239 0.5355034102 -0.0509277211 0.8463673344 0.4953093514 -0.1957829961 -0.3882868589 0.4846435227 -0.7838073559 -0.6390999804 0.0023772540 -0.7691199930 -0.6399044812 0.0059186222 -0.7684316657 -0.6593808068 0.0312889253 -0.7511577429 -0.6402476361 0.0068351771 -0.7681381678 0.6737015956 -0.7299247713 0.1154815501 -0.7465973594 0.5001255875 -0.4387103597 0.0305776888 0.5334443141 0.8452823012 -0.0409902448 -0.5300980123 -0.8469450378 0.0820175362 0.5877779893 0.8048541228 -0.2700280841 -0.9626476754 0.0198566603 0.1004653415 0.2653473512 -0.9589043218 0.1191192995 0.3265793768 -0.9376334588 0.1512904120 0.3326297095 -0.9308429984 0.6478893023 0.7530083080 -0.1149693004 -0.7220723310 0.1953210311 0.6636725424 -0.7242995687 0.1935537083 0.6617606038 -0.7194366450 0.1982394143 0.6656666196 0.6674058873 -0.6824140860 0.2981281548 0.0836685488 0.9547544703 -0.2853830328 -0.8208156620 -0.4748963820 -0.3173878941 -0.4957020700 0.6363069471 -0.5910946852 -0.4634281300 0.6030954631 -0.6492381926 0.7901417626 -0.0938976166 0.6056890561 0.7901350599 -0.0938694724 0.6057021622 0.8444767037 -0.1237573154 0.5210980943 -0.4804932691 -0.4724132890 -0.7388855816 -0.4806947283 -0.4723424126 -0.7387998534 -0.8296574064 0.3939444046 -0.3955709722 -0.8296610646 0.3939525056 -0.3955552317 -0.4808306829 -0.4721569844 -0.7388299104 -0.8296643052 0.3939596819 -0.3955412868 -0.4811614517 -0.4719132900 -0.7387702647 0.3185876343 -0.9429420924 0.0967580983 -0.4820353839 -0.4721393706 -0.7380557590 0.2092428266 -0.8994053831 0.3837804013 0.6520581358 0.0400596321 0.7571099084 -0.6441884463 0.3471679285 0.6815391956 0.7225053554 0.2206015443 0.6552258924 -0.8881213300 0.3657847083 0.2782841182 -0.3630537985 0.2635143581 0.8937293340 -0.9134020936 0.4064951764 0.0214076377 -0.1171913080 -0.3822014601 -0.9166178272 -0.5673818231 0.0198210696 -0.8232162486 -0.6199647150 0.0613686557 -0.7822260801 0.5775088178 0.3804837917 -0.7222988645 0.5922915613 0.1605519787 -0.7895655568 -0.8551927741 0.4577703513 0.2430876889 -0.2121166084 0.1881381346 -0.9589632875 0.1878016402 0.9617674166 0.1993338415 -0.1729124606 0.1426009428 -0.9745595169 0.1990421212 0.9598103145 0.1978544771 0.1113995952 -0.3955454717 0.9116654595 0.1155641320 -0.3996899393 0.9093365075 0.1344978153 -0.3967763389 0.9080081908 0.1435126712 -0.4045233873 0.9031970673 0.1400452605 -0.4010364709 0.9052939158 0.1473913790 -0.4080391829 0.9009882389 -0.2863853960 -0.3223536820 -0.9022591139 0.3785218364 -0.5094543498 -0.7727725958 -0.5199679450 0.4209962319 -0.7432331457 -0.0833866615 0.6542487421 0.7516683099 0.5773275510 0.7774678725 0.2494726561 0.5227670991 0.8247702824 0.2155656314 0.0601939735 0.8894153613 0.4531191903 -0.4905924646 0.6718755223 -0.5548894631 -0.4289412960 0.7047240419 -0.5651313028 -0.4524696451 0.6937436575 -0.5603489609 -0.8633859928 0.4713737686 -0.1799205318 -0.8462634082 0.5090409109 -0.1572119429 0.5516847691 -0.6409602475 0.5336795637 0.5541489659 -0.6320144451 0.5417348657 -0.7812922272 0.6206695308 0.0659680920 -0.2539242905 -0.7838851904 0.5666096214 -0.5217429955 -0.8113395312 0.2636520657 0.0902451839 -0.5499421558 -0.8303128519 -0.7678856904 0.6318431563 0.1054788717 -0.8247977261 0.4154659333 -0.3835319665 -0.8972025240 0.3045585246 -0.3197995247 -0.6695090694 0.6474107965 0.3641659878 -0.6952571405 0.6059880352 0.3865178001 0.4726543078 0.5529775805 0.6861586557 -0.5782796929 -0.6280746901 0.5206868352 0.4301520574 0.0342249211 0.9021074561 -0.2343321138 -0.3973541300 0.8872418812 -0.8752871162 0.4024323546 -0.2681802831 -0.4119809217 0.5874675069 -0.6965297184 -0.4463015056 0.6199839650 -0.6453176344 -0.3123750759 0.1976000727 0.9291802964 -0.3112727130 0.1919313363 0.9307371596 0.6170349066 0.7838417470 -0.0697139847 -0.5278266864 0.0510440165 0.8478169009 -0.3214362759 -0.1894414652 -0.9277880425 -0.4742028762 0.5042234326 -0.7217273462 0.8909392155 -0.3930380053 0.2274828359 0.4874348000 -0.6942069857 0.5296073798 -0.9437490447 -0.0749432315 0.3220578405 -0.2749696911 0.0456935155 -0.9603664778 0.8970699457 0.4174675603 0.1448666584 -0.3441768935 -0.8706325478 -0.3514843278 -0.8143415053 0.5018480501 -0.2915415020 -0.7348232873 0.5805509535 -0.3507068959 -0.8112512344 0.4780659466 -0.3366368747 0.9357413721 -0.2447938821 0.2538976956 0.4574981046 -0.7332447734 0.5030383550 -0.8300200652 -0.1449548880 -0.5385673326 -0.4965792630 -0.8655651858 -0.0648532547 0.8386069925 0.0828466930 0.5384001649 -0.0849795385 -0.1184304946 -0.9893193094 -0.0743618192 -0.1172862037 -0.9903101869 -0.7445489484 0.6038660852 -0.2845920144 -0.7393014021 0.5303040934 -0.4149831387 -0.3666933595 0.9001642628 -0.2350325088 -0.9544484706 -0.1118662132 -0.2766117627 -0.9323631558 0.1260863349 -0.3388232310 0.5085708790 -0.4262391024 0.7481148900 -0.5615338699 0.4950688653 -0.6630132213 -0.5510742973 0.3613065915 -0.7521799425 -0.9717908647 0.0413073978 -0.2321986522 0.8402938903 -0.4414776022 0.3146485416 0.7811473113 0.1282816287 0.6110259420 -0.9114379154 0.0809341036 -0.4033988066 0.1128624065 -0.5531067032 -0.8254302224 0.1133637635 -0.5525043369 -0.8257648665 0.1167669930 -0.5494442969 -0.8273309096 -0.4620134272 0.8758173815 0.1395976626 -0.6387866665 0.4705102348 -0.6087460173 -0.6425270323 0.4561780224 -0.6156789948 -0.2244724819 -0.6072053396 -0.7621770007 -0.3322292024 0.8558882206 -0.3963320715 -0.3337987107 0.8765922724 -0.3466473837 0.3784984608 0.7489780142 0.5438481860 -0.3623539111 -0.9183162035 0.1593580668 0.9822279055 -0.0269853684 -0.1857421104 0.7484045224 0.3202031464 -0.5808275268 0.5557963742 -0.7110882226 0.4306320123 0.5557205734 -0.7111426300 0.4306399936 0.5926568830 -0.6829519318 0.4270064144 0.7837985959 0.3648409673 -0.5025443560 -0.8181996582 0.3520484769 -0.4545450355 -0.4660373701 0.6157817918 -0.6353124858 0.4930174892 0.7972961741 -0.3482133918 0.5271335072 -0.7276691317 0.4388939512 0.5273017667 -0.7274634951 0.4390326982 0.5272799810 -0.7274504592 0.4390804609 0.5272711690 -0.7274502682 0.4390913592 0.5272828165 -0.7274496137 0.4390784566 0.5273164048 -0.7274477067 0.4390412775 -0.5045420318 0.8127639634 -0.2912938002 -0.4488523822 0.8873112394 -0.1058787209 -0.3894777177 0.9167116291 -0.0891453668 0.9195069447 -0.3689506834 0.1355816056 0.8237078280 -0.2184960602 -0.5232254636 0.1420568233 -0.3030752136 0.9423190934 0.4049838610 -0.8669347208 0.2905378843 0.5004865094 -0.0848778292 -0.8615735651 0.4317706045 -0.2666534643 -0.8616670326 -0.3723189537 -0.9073912098 0.1949866384 -0.8880352976 -0.1964404454 0.4156975603 0.4434433487 -0.0769837185 0.8929902035 0.4546450604 -0.1147986191 0.8832435373 0.2767633112 -0.2284906656 0.9333777827 -0.1666022256 0.8423049208 -0.5126071779 0.3337790557 0.1729459473 0.9266505497 -0.8845801175 0.2593230711 0.3876461796 -0.5756727405 0.5716769383 -0.5846249859 -0.6135458153 0.5502419686 -0.5663879488 -0.2022177190 0.2810269155 -0.9381534346 0.5232962305 -0.3290409001 0.7860617922 0.5181063145 -0.3777587801 0.7673748438
        </DataArray>
        <DataArray type="Float32" Name="contact force" NumberOfComponents="3" format="ascii">