<?xml version="1.0"?>
<VTKFile type="UnstructuredGrid" version="0.1" byte_order="LittleEndian">
  <UnstructuredGrid>
    <FieldData>
      <DataArray type="Float32" Name="TIME"  NumberOfTuples="1" format="ascii"> 1.6000000000 </DataArray>
      <DataArray type="Int32"   Name="STEP"  NumberOfTuples="1" format="ascii"> 160000 </DataArray>
    </FieldData>
    <Piece NumberOfPoints="303" NumberOfCells="303">
      <Points>
        <DataArray type="Float32" NumberOfComponents="3" format="ascii">
 3.9494648103 0.1740765950 -3.8300986657 4.0651129721 0.1002208104 -3.8198892854 4.0703180568 0.1133476826 -3.8036034626 4.0159569666 0.1004835037 -3.9351200504 4.0814684635 0.1119307639 -3.8208582458 4.0278667756 0.0955840092 -3.9394539488 4.1262986912 0.0933615210 -3.9704753589 4.1220561343 0.3283735668 -3.8000988070 4.1336250076 0.3237723678 -3.8079898658 4.1351910893 0.4138347249 -3.8155917657 4.2289290563 0.1704468085 -4.0164452450 4.2365426969 0.1773864084 -4.0168736584 4.1952224569 0.4346469014 -3.9092290309 4.2758098852 0.2357418518 -4.0990765560 4.1731863201 0.3770475531 -4.0856879982 4.1830485147 0.3752804724 -4.0955386294 4.2023372655 0.3920470211 -4.1045436989 4.3223814741 0.3829650371 -3.9684625929 4.3332904267 0.3758039901 -3.9775860602 4.3505343524 0.3696522879 -4.0736765102 4.6017486528 0.2545667737 -3.6321961120 4.5492903085 0.3143506004 -3.7198503717 4.5495241213 0.3102829216 -3.7286065958 4.6371229384 0.5132505141 -3.7894284198 4.6380083140 0.5054248487 -3.8102257819 4.6330590798 0.2861973727 -3.8498540603 4.6338497990 0.3000453699 -3.8573551824 4.5911379624 0.4680874411 -3.9154775751 4.5842055849 0.4490293202 -3.9014108437 3.7869157865 0.7440779413 -3.6458017395 3.7969974997 0.7456610652 -3.6438910407 3.8006006272 0.7367503191 -3.6500713452 3.7255169540 0.8300987537 -3.4768317075 3.7231041937 0.8304610006 -3.4643001439 3.7622345272 0.6603459209 -3.5619183536 3.7482168677 0.7226841716 -3.4314641317 3.7557880450 0.7171089258 -3.4345020483 4.1744648042 0.7195611961 -3.7373502836 4.2656736906 0.7255999646 -3.8074095158 4.1719346115 0.7138886294 -3.8564323506 4.1758276642 0.7179831814 -3.8597546002 4.1706282980 0.7198392928 -3.8628698654 4.0351461279 0.7315336333 -3.8042832363 4.2707535005 0.8332653639 -3.8573488925 4.1088818256 0.8151321894 -3.7737486957 4.1036473386 0.8163124741 -3.7789959237 4.1118815949 0.8205809837 -3.7789708788 4.1071594263 0.8220201684 -3.7845441591 4.1029586955 0.8240374971 -3.7907976566 3.9503301378 0.3962322468 -3.4421525650 4.0305560890 0.3877086710 -3.3558846161 3.8691285810 0.5789714932 -3.4476589680 3.8465785129 0.6002994548 -3.3923334524 4.1067339857 0.4631276002 -3.4072007744 4.1143483055 0.4632721051 -3.4169894642 4.1188488933 0.4792041410 -3.4156365357 4.1252403755 0.4783062397 -3.4242553066 4.0152269778 0.3918724522 -3.5702404205 3.9737279484 0.6722689733 -3.3042084246 3.9726689801 0.7142349251 -3.5165787049 4.1929675953 0.4636517008 -3.5474056273 4.2007054764 0.4749855238 -3.5477982544 4.0381170852 0.8012688536 -3.4039215332 4.1806243391 0.7583478324 -3.4452268918 4.1919378019 0.7768477374 -3.4560628287 4.1084823922 0.8533878667 -3.6075950455 4.4959188696 0.2931156808 -3.7189773633 4.5018201674 0.2913101838 -3.7312746495 4.4801415793 0.1437811062 -3.7313390387 4.1830744852 0.0393239293 -3.9262979766 4.1998198702 0.0413132875 -3.9260353559 4.2983625472 0.2148445511 -3.8845588038 4.3796729549 0.3501675058 -3.8589246394 4.3903500746 0.3578452083 -3.8568416302 4.2190554674 0.2751662686 -3.7528300886 4.2905312014 0.1754073321 -3.6445166533 4.1828005742 0.2119996245 -3.6738361290 3.7815281415 0.3850991681 -3.6607418324 3.7763601064 0.3794581953 -3.6506070658 3.7698215714 0.3767608712 -3.5529156294 3.7726103551 0.4017676462 -3.5311448531 3.7783115080 0.4107813562 -3.5252672100 3.7751619588 0.4188814469 -3.5165281999 3.7806983699 0.4258663085 -3.5125113359 3.7775892677 0.4327035341 -3.5048962106 3.7799409316 0.4451699448 -3.4944949668 3.7767932209 0.4521170187 -3.4867826699 3.7378016238 0.5432160520 -3.5581876954 3.7422921526 0.5483914829 -3.5596062078 3.7958895406 0.5823074273 -3.4291308356 3.7913827379 0.5913221094 -3.4371951620 3.8658396953 0.3163589328 -3.4860190343 3.9264396539 0.2379987056 -3.5856106796 3.9223520913 0.2292435355 -3.5829040744 3.9320192888 0.2388308996 -3.5891476639 3.9165941904 0.2230887114 -3.5791774000 3.9283161535 0.2287437173 -3.5866539540 3.9371407435 0.2414609595 -3.5924193321 3.9420306202 0.2460433519 -3.5955726811 3.9469219250 0.2530067143 -3.5987565272 3.9521030550 0.2631913366 -3.6021501699 3.8113287105 0.2383655180 -3.4423160987 3.9588012830 0.2617167667 -3.6063699288 4.0196863318 0.2624541459 -3.5457763906 3.8421052222 0.1643705496 -3.4416647345 3.7981644016 0.0900566062 -3.4719928379 3.8113988187 0.0672956753 -3.4826013482 3.8888031033 -0.0153726050 -3.4742368259 4.0163124772 0.0612499969 -3.5323169040 4.0285386363 0.0810053826 -3.5399907013 4.0341841715 0.0911958704 -3.5435237035 4.0409204952 0.0962577333 -3.5478563692 4.5219250345 0.1624262765 -3.8923880765 4.4765105184 0.0832358702 -3.9005241609 4.5531913526 0.0973370416 -3.7106010030 4.0824883657 0.1782007698 -3.4825340361 4.0339468209 0.2608010302 -3.4823608203 4.4083340243 0.6756753354 -3.5971670237 4.3557675178 0.6083756733 -3.7526473344 4.4520076209 0.6655882426 -3.7351156976 4.4492279804 0.6685889279 -3.7408051141 4.4524699934 0.6748260153 -3.7386343276 4.3761300117 0.7398868843 -3.7489038609 4.1289971454 0.4807613970 -3.7850442668 4.2027931474 0.4858365480 -3.7867265903 4.2072426586 0.5048885185 -3.7809336192 4.2160276864 0.4980625288 -3.7911994754 4.0986684572 0.5443657671 -3.9169504521 4.1019568997 0.5585647596 -3.9169512451 4.1036928883 0.5718625694 -3.9152118210 4.1106170020 0.5568046318 -3.9273388368 4.1124015151 0.5699855014 -3.9255270103 4.1128537293 0.5825758553 -3.9223010956 4.1200044590 0.5920385379 -3.9274139830 4.2822011690 0.6330423594 -3.8555632957 4.2906601770 0.6360754813 -3.8618260550 4.2991011683 0.6391058206 -3.8680802676 4.3464087454 0.4600664788 -3.9549456423 4.3538467136 0.4706646230 -3.9572275236 4.3078461287 0.6423272266 -3.8746070980 4.3610457927 0.4809840937 -3.9595907887 4.2069530215 0.7300451152 -3.9634919230 4.3172913365 0.6459789666 -3.8817513808 4.2144788279 0.7289962408 -3.9730835794 4.3280243649 0.6504175080 -3.8900215211 4.2787396709 0.7556643657 -3.9591702309 4.2839237464 0.6284851827 -4.0799849634 4.3824015822 0.5587745060 -4.0515690008 4.2970610098 0.6417894288 -4.0915840092 4.4414156663 0.6691227044 -3.9848747664 3.9440872516 0.7052782684 -3.8355077617 3.9382052517 0.7143247681 -3.8366083174 3.9463782134 0.7152247355 -3.8403481950 3.9407056695 0.7253544127 -3.8421527373 3.9538856683 0.7159515419 -3.8440317104 3.9490962146 0.7259566061 -3.8459962252 4.0321766226 0.6170189977 -3.9315496429 3.9569861855 0.7266847973 -3.8496517149 4.0362868754 0.6206569884 -3.9405125833 4.0370513144 0.6276965259 -3.9343290782 4.0378129917 0.6342691685 -3.9289101938 4.0422013694 0.6397386721 -3.9376225228 4.0433526169 0.6464470188 -3.9330704846 4.1703199522 0.1003745722 -3.5699832823 4.1669162607 0.0032765253 -3.5085860681 3.9936907010 0.0955512103 -3.4370359138 4.0751844474 0.0399000034 -3.4277104201 4.0678431329 0.0428552170 -3.4231406512 3.9971091943 -0.0069375341 -3.4039169432 3.9881937120 0.0011417677 -3.4129827372 4.6641226485 0.4117695187 -3.7991949270 3.8252373559 0.0988149104 -3.7166116962 3.9018380204 0.0347101722 -3.7473355330 3.9157995358 0.1296302378 -3.7742170123 3.9193167065 0.1273995663 -3.7751105160 3.9232763532 0.1305634994 -3.7739278757 3.9400903520 0.1541357287 -3.7068461522 3.9489021551 0.1596684762 -3.7085469480 3.7361525404 0.8440728446 -3.3956722616 4.0413976644 0.4436581366 -3.7554683498 4.0382270555 0.4336858929 -3.7535097203 4.1573852228 0.3510876042 -3.7422131335 4.2514079585 0.5714891762 -4.1216037114 4.2436339281 0.5756302105 -4.1170122336 4.3409488934 0.0578584872 -3.9471968504 4.3177131233 0.0672342834 -3.9033846099 4.3277424818 0.0719586870 -3.9029019382 4.3211775676 0.0734119003 -3.8986211091 4.4126724354 0.1076287684 -3.9596475654 4.4212354765 0.1210118454 -3.9585279356 4.2832665656 0.1783430839 -3.9873989667 4.2881176667 0.1822415165 -3.9877299640 4.2205108213 0.1044935793 -3.4607897102 4.2788831872 0.2058649043 -3.4679496071 4.5267533448 0.5912016601 -3.9504442422 4.4924613107 0.5844292876 -3.8600526716 4.4952597292 0.4626726725 -3.9305847508 4.4909382309 0.4596560666 -3.9258496988 4.4903780957 0.4549590723 -3.9304040264 4.4864851871 0.4523864962 -3.9257611881 4.4402506905 0.3699207220 -3.9923719030 3.8834902830 0.8374354459 -3.7225095085 4.4177606605 0.6307264767 -3.8350901231 4.3220782251 0.5768538169 -3.7728631464 4.3145201178 0.5806960043 -3.7667707301 3.8475585793 0.8288535423 -3.4083860420 3.8545844670 0.8279664978 -3.4047200062 3.7985909156 0.2247921201 -3.6831967628 3.8801975396 0.2277851384 -3.7805585582 3.8334363106 0.3672367444 -3.7181781487 3.9327733964 0.0885103401 -3.3922541112 3.9679330874 0.1285917769 -3.4124659211 4.2348365893 -0.0210600786 -3.5793019455 4.2029667581 0.0011126081 -3.6819387479 4.2905381273 0.0004132502 -3.7058016001 4.2562417808 0.0000880679 -3.7334203733 4.0588962813 0.8277657785 -3.3289568413 3.9213129756 0.8656600518 -3.4508008447 4.3300524793 0.1211754451 -3.5879560146 4.3324120691 0.1199173576 -3.5932255735 4.3273929453 0.1157430897 -3.5892876138 4.2192436134 0.1235386428 -3.6012835306 4.4498213158 0.1582111361 -4.0698985686 4.4513871996 0.3129523136 -4.0810457389 3.8931502729 0.8211797146 -3.7777479200 3.8847691514 0.8290734045 -3.7745239480 4.0121571756 0.7816008669 -3.8589645789 3.9688154059 0.9037926776 -3.8555188954 4.2845491646 0.7394439612 -3.4751069115 4.2777379547 0.7393920325 -3.3981855724 4.3335098054 0.0877133335 -4.1521096846 3.8657240961 0.0236579280 -3.6751050796 3.8155044544 0.0063633911 -3.7000770089 3.8104606355 0.0045954473 -3.7040214252 3.8051091664 0.0120084057 -3.6996205743 3.9979474620 0.7114814801 -3.2780573526 4.0998433385 0.7803674272 -3.3251774821 3.9503402688 0.7543292185 -3.6682516393 4.0099491125 0.8782080935 -3.6344386621 4.0188219675 0.8796296790 -3.6463999571 3.9909895606 0.8559670722 -3.6631491677 3.7259549738 0.1523945586 -3.6039339194 3.7941915919 0.0808639917 -3.6794874509 4.3548177082 0.8828098919 -3.8641768941 4.4457250529 0.8715425126 -3.8126885774 4.3469882382 0.8854987394 -3.8553514240 4.4425320630 0.8501004876 -3.8115076561 4.4855847644 0.6372922670 -3.7809112215 4.4883479649 0.6412482178 -3.7832012251 4.4847675837 0.6435921887 -3.7859287651 4.4876066516 0.6483199905 -3.7887686862 4.5084854555 0.3574729496 -3.9142171423 3.9757327724 -0.0042278320 -3.3176236956 4.3421942648 0.0344875053 -3.8333230441 4.3438525483 0.0292047384 -3.8400888363 4.4386894238 0.0221635544 -3.9962797334 4.4370445941 0.0148378346 -3.9900656816 4.4503167818 0.0079944840 -3.9490328184 4.4485176106 0.0107909238 -3.9394253053 3.9157077408 0.1047587588 -3.8336400132 3.9724174616 0.2786967579 -3.7917598924 4.3691074610 0.8425984617 -3.9772102891 4.3691390886 0.8511834053 -3.9765183221 4.2908443198 0.8769710112 -3.9519739018 4.3493425303 0.0105896111 -3.6337248659 3.8376356650 0.0699706861 -3.6527597476 3.7516267425 0.1374554850 -3.5847667433 4.1653383310 0.4339611697 -3.3346614479 4.0034427874 0.5479807150 -3.2197482418 4.2886886925 0.1071074071 -4.1873964658 4.2900381132 0.1149216276 -4.1779146671 4.2963463450 0.1176433359 -4.1792818390 4.2980500946 0.1226162643 -4.1739075689 4.3003403303 0.1265770405 -4.1703650692 4.3033193468 0.1299000641 -4.1682363740 4.3072009799 0.1328075030 -4.1673851704 4.3270661690 0.0181722009 -3.7659306680 4.3163246636 0.0162301541 -3.7593372855 4.3478212393 0.0242666980 -3.7759160178 4.3510035964 0.2847693109 -4.1476212470 4.7315516469 0.3104787203 -3.7312212911 3.7840411882 0.5759484353 -3.6260266681 3.7754466997 0.5634630789 -3.6283335561 3.9268878978 0.6076031136 -3.6562854902 3.9137375331 0.4803375001 -3.7480344007 3.9606417360 0.6843264450 -3.7063832109 3.9632801348 0.6808954418 -3.7076562129 4.0086920978 0.4539161472 -3.8650597742 3.9957053234 0.4547933742 -3.8621701706 4.0075156527 0.3889797698 -3.3121839876 3.9238496766 0.2641796003 -3.3690221112 3.9666899932 0.2422662655 -3.3145479153 3.9297008777 0.2552170674 -3.3718260967 3.7769584682 0.0143544691 -3.5849079471 4.1340615680 0.7472459356 -3.3658822278 4.2109544693 0.0065444616 -3.5210387532 4.1966911951 -0.0170643111 -3.4615183212 3.8275978444 0.3748824431 -3.4674083017 3.8212336761 0.3720874432 -3.4650191079 4.5070591909 0.8562734074 -3.7683138921 4.3296046730 -0.0486584875 -3.6245863119 4.0720886370 0.8723909291 -3.6935078609 4.0653233859 0.8663036759 -3.6928868034
        </DataArray>
      </Points>
      <Cells>
        <DataArray type="Int32" Name="connectivity" format="ascii">
 0 1 2 3 4 5 6 7 8 9 10 11 12 13 14 15 16 17 18 19 20 21 22 23 24 25 26 27 28 29 30 31 32 33 34 35 36 37 38 39 40 41 42 43 44 45 46 47 48 49 50 51 52 53 54 55 56 57 58 59 60 61 62 63 64 65 66 67 68 69 70 71 72 73 74 75 76 77 78 79 80 81 82 83 84 85 86 87 88 89 90 91 92 93 94 95 96 97 98 99 100 101 102 103 104 105 106 107 108 109 110 111 112 113 114 115 116 117 118 119 120 121 122 123 124 125 126 127 128 129 130 131 132 133 134 135 136 137 138 139 140 141 142 143 144 145 146 147 148 149 150 151 152 153 154 155 156 157 158 159 160 161 162 163 164 165 166 167 168 169 170 171 172 173 174 175 176 177 178 179 180 181 182 183 184 185 186 187 188 189 190 191 192 193 194 195 196 197 198 199 200 201 202 203 204 205 206 207 208 209 210 211 212 213 214 215 216 217 218 219 220 221 222 223 224 225 226 227 228 229 230 231 232 233 234 235 236 237 238 239 240 241 242 243 244 245 246 247 248 249 250 251 252 253 254 255 256 257 258 259 260 261 262 263 264 265 266 267 268 269 270 271 272 273 274 275 276 277 278 279 280 281 282 283 284 285 286 287 288 289 290 291 292 293 294 295 296 297 298 299 300 301 302
        </DataArray>
        <DataArray type="Int32" Name="offsets" format="ascii">
 1 2 3 4 5 6 7 8 9 10 11 12 13 14 15 16 17 18 19 20 21 22 23 24 25 26 27 28 29 30 31 32 33 34 35 36 37 38 39 40 41 42 43 44 45 46 47 48 49 50 51 52 53 54 55 56 57 58 59 60 61 62 63 64 65 66 67 68 69 70 71 72 73 74 75 76 77 78 79 80 81 82 83 84 85 86 87 88 89 90 91 92 93 94 95 96 97 98 99 100 101 102 103 104 105 106 107 108 109 110 111 112 113 114 115 116 117 118 119 120 121 122 123 124 125 126 127 128 129 130 131 132 133 134 135 136 137 138 139 140 141 142 143 144 145 146 147 148 149 150 151 152 153 154 155 156 157 158 159 160 161 162 163 164 165 166 167 168 169 170 171 172 173 174 175 176 177 178 179 180 181 182 183 184 185 186 187 188 189 190 191 192 193 194 195 196 197 198 199 200 201 202 203 204 205 206 207 208 209 210 211 212 213 214 215 216 217 218 219 220 221 222 223 224 225 226 227 228 229 230 231 232 233 234 235 236 237 238 239 240 241 242 243 244 245 246 247 248 249 250 251 252 253 254 255 256 257 258 259 260 261 262 263 264 265 266 267 268 269 270 271 272 273 274 275 276 277 278 279 280 281 282 283 284 285 286 287 288 289 290 291 292 293 294 295 296 297 298 299 300 301 302 303
        </DataArray>
        <DataArray type="UInt8" Name="types" format="ascii">
 1 1 1 1 1 1 1 1 1 1 1 1 1 1 1 1 1 1 1 1 1 1 1 1 1 1 1 1 1 1 1 1 1 1 1 1 1 1 1 1 1 1 1 1 1 1 1 1 1 1 1 1 1 1 1 1 1 1 1 1 1 1 1 1 1 1 1 1 1 1 1 1 1 1 1 1 1 1 1 1 1 1 1 1 1 1 1 1 1 1 1 1 1 1 1 1 1 1 1 1 1 1 1 1 1 1 1 1 1 1 1 1 1 1 1 1 1 1 1 1 1 1 1 1 1 1 1 1 1 1 1 1 1 1 1 1 1 1 1 1 1 1 1 1 1 1 1 1 1 1 1 1 1 1 1 1 1 1 1 1 1 1 1 1 1 1 1 1 1 1 1 1 1 1 1 1 1 1 1 1 1 1 1 1 1 1 1 1 1 1 1 1 1 1 1 1 1 1 1 1 1 1 1 1 1 1 1 1 1 1 1 1 1 1 1 1 1 1 1 1 1 1 1 1 1 1 1 1 1 1 1 1 1 1 1 1 1 1 1 1 1 1 1 1 1 1 1 1 1 1 1 1 1 1 1 1 1 1 1 1 1 1 1 1 1 1 1 1 1 1 1 1 1 1 1 1 1 1 1 1 1 1 1 1 1 1 1 1 1 1 1 1 1 1 1 1 1 1 1 1 1 1 1
        </DataArray>
      </Cells>
      <PointData Scalars="overlap">
        <DataArray type="Float32" Name="overlap" format="ascii">
 0.0001308854 0.0000324095 0.0001503553 0.0006499920 0.0001019198 0.0005269687 0.0000545743 0.0000866345 0.0000506891 0.0001348028 0.0000546899 0.0002482490 0.0003180582 0.0000070850 0.0000570030 0.0000278619 0.0003299471 0.0000027043 0.0002219353 0.0000892240 0.0001032148 0.0003411439 0.0002047484 0.0002976842 0.0001623348 0.0002939985 0.0002340439 0.0001246331 0.0004607569 0.0000373413 0.0000917373 0.0000606945 0.0001897014 0.0000567183 0.0001880679 0.0000958123 0.0000888691 0.0000824907 0.0002515853 0.0002238225 0.0005470991 0.0000434848 0.0001759186 0.0000811065 0.0001194867 0.0001661616 0.0001991136 0.0003656979 0.0001437243 0.0000008451 0.0000839549 0.0002175208 0.0000093199 0.0000337350 0.0000121350 0.0000082100 0.0000899320 0.0003183921 0.0001256840 0.0000495611 0.0001232875 0.0000237290 0.0000093130 0.0000432980 0.0000581104 0.0002077962 0.0000249095 0.0001001528 0.0000148094 0.0000035089 0.0000241527 0.0001686125 0.0000668689 0.0000647958 0.0001780763 0.0000673218 0.0001153476 0.0000599977 0.0000348988 0.0000025321 0.0000385317 0.0000457648 0.0000514093 0.0000125621 0.0000404321 0.0000048190 0.0000055904 0.0001024614 0.0000760639 0.0000336052 0.0000500616 0.0000251638 0.0000462103 0.0000330334 0.0000702226 0.0000083364 0.0000312801 0.0000850800 0.0001009208 0.0001144035 0.0000986041 0.0000411137 0.0001179603 0.0000407231 0.0000528473 0.0000232437 0.0000522437 0.0000211608 0.0000075024 0.0000931998 0.0000480220 0.0000201930 0.0000052904 0.0000163620 0.0000775102 0.0000109765 0.0000097435 0.0001853676 0.0000631815 0.0000583084 0.0001940056 0.0000286403 0.0002863900 0.0001810849 0.0002783255 0.0002210969 0.0001398693 0.0002530157 0.0004974319 0.0002218214 0.0001223446 0.0004857186 0.0002834521 0.0000253306 0.0000135737 0.0000340811 0.0000450258 0.0001692566 0.0002866093 0.0000522400 0.0002127763 0.0001714659 0.0000583479 0.0002600807 0.0000546554 0.0000288543 0.0000389080 0.0001487034 0.0002928345 0.0001577570 0.0001955839 0.0002167897 0.0000906557 0.0000121285 0.0001964207 0.0002650699 0.0001197309 0.0000443319 0.0000044518 0.0004663353 0.0001829469 0.0001972700 0.0000914986 0.0000317432 0.0000487900 0.0000862992 0.0000055310 0.0000162402 0.0000734532 0.0000049324 0.0000197871 0.0000045861 0.0000092132 0.0000020225 0.0000187378 0.0000082475 0.0000011631 0.0000111286 0.0000469019 0.0000240951 0.0000087244 0.0000128127 0.0001131308 0.0000728351 0.0000583303 0.0000194755 0.0000297500 0.0000850702 0.0000356233 0.0000024932 0.0002167621 0.0000400751 0.0001951426 0.0000055388 0.0000493434 0.0000235559 0.0000089389 0.0001562373 0.0001221018 0.0001530293 0.0000970235 0.0000778872 0.0000478232 0.0000202342 0.0000355564 0.0000508540 0.0000571781 0.0002216861 0.0000888198 0.0001816317 0.0000178735 0.0000261129 0.0000027156 0.0000168969 0.0000124584 0.0000049165 0.0000081241 0.0000070518 0.0000654241 0.0000284827 0.0000033564 0.0000369679 0.0000012130 0.0000192867 0.0000570675 0.0000447492 0.0000409181 0.0000168804 0.0000407880 0.0000417024 0.0000102121 0.0001585551 0.0000537894 0.0000756027 0.0000483983 0.0000025166 0.0000416109 0.0000951285 0.0000501381 0.0000404277 0.0001267886 0.0000475754 0.0000806553 0.0001353259 0.0000107845 0.0000169812 0.0000574294 0.0000049980 0.0000016187 0.0000194047 0.0000212910 0.0000489715 0.0000058413 0.0000819264 0.0000302496 0.0000305197 0.0000055199 0.0000231239 0.0000435374 0.0000163452 0.0000085294 0.0000425900 0.0000190415 0.0000006241 0.0000151610 0.0000280846 0.0000031124 0.0000560125 0.0000218327 0.0000543955 0.0000039446 0.0000821893 0.0000449709 0.0000225741 0.0000190164 0.0000285050 0.0000274024 0.0000129161 0.0000260412 0.0000252273 0.0000065860 0.0000592434 0.0000124610 0.0000554368 0.0000153063 0.0000096233 0.0000063823 0.0000050851 0.0000452162 0.0000184771 0.0000263436 0.0000090912 0.0000170493 0.0000981387 0.0000140932 0.0000309521 0.0000643112 0.0000191296 0.0000234432 0.0000058339 0.0000875660 0.0000101533 0.0000572005
        </DataArray>
        <DataArray type="Float32" Name="contact normal" NumberOfComponents="3" format="ascii">