<?xml version="1.0"?>
<VTKFile type="UnstructuredGrid" version="0.1" byte_order="LittleEndian">
  <UnstructuredGrid>
    <FieldData>
      <DataArray type="Float32" Name="TIME"  NumberOfTuples="1" format="ascii"> 1.7500000000 </DataArray>
      <DataArray type="Int32"   Name="STEP"  NumberOfTuples="1" format="ascii"> 175000 </DataArray>
    </FieldData>
    <Piece NumberOfPoints="308" NumberOfCells="308">
      <Points>
        <DataArray type="Float32" NumberOfComponents="3" format="ascii">
 4.7640333599 0.1698327376 -4.6448970979 4.8798846248 0.0964576395 -4.6349201680 4.8851231675 0.1094567869 -4.6185454432 4.8307801679 0.0967306301 -4.7500933610 4.8962803004 0.1081106361 -4.6357987452 4.8427143349 0.0918952469 -4.7544341216 4.9411389878 0.0900837262 -4.7854811083 4.9360676874 0.3246836767 -4.6145615494 4.9476522947 0.3201425763 -4.6224646668 4.9488928230 0.4102254958 -4.6298591342 5.0434843685 0.1676453943 -4.8312848006 5.0510727511 0.1746134843 -4.8316980756 5.0088369990 0.4314773830 -4.7234525388 5.0901159114 0.2333022661 -4.9137673394 4.9869834811 0.3742045500 -4.9000444844 4.9968512974 0.3724954613 -4.9098997088 5.0160778720 0.3893523981 -4.9188684237 5.1361736719 0.3803889605 -4.7828213618 5.1471075390 0.3732886788 -4.7919623931 5.1643599665 0.3674208749 -4.8880657665 5.4160417761 0.2522426385 -4.4468637186 5.3633545770 0.3120331782 -4.5343782575 5.3636059024 0.3079852961 -4.5431427005 5.4504537619 0.5114053624 -4.6035188928 5.4513670918 0.5036300338 -4.6243338097 5.4472137731 0.2844755153 -4.6644545210 5.4479531156 0.2983423889 -4.6719238672 5.4046235335 0.4663597906 -4.7296634970 5.3977611624 0.4472450096 -4.7156391687 4.5994617347 0.7388173690 -4.4592690525 4.6095376800 0.7404301242 -4.4573549442 4.6131695830 0.7315373528 -4.4635463358 4.5377775846 0.8242139531 -4.2900831389 4.5353627947 0.8245447072 -4.2775512336 4.5750724163 0.6547947886 -4.3755849502 4.5608493638 0.7167669438 -4.2449794446 4.5684394878 0.7112251453 -4.2480314810 4.9870721934 0.7159119347 -4.5509337462 5.0782474087 0.7224463891 -4.6209913066 4.9845443723 0.7105044012 -4.6700266288 4.9884208901 0.7146215075 -4.6733393579 4.9832151546 0.7164648339 -4.6764502453 4.8477104789 0.7275346146 -4.6177996154 5.0829259127 0.8302398812 -4.6706766907 4.9211366012 0.8113294373 -4.5870912726 4.9158968267 0.8125027137 -4.5923347919 4.9241152578 0.8168011354 -4.5923013049 4.9193868603 0.8182359438 -4.5978704080 4.9151776407 0.8202523557 -4.6041184950 4.7641310697 0.3910960059 -4.2564464126 4.8444000474 0.3826652738 -4.1702094276 4.6822726955 0.5735479398 -4.2615173191 4.6596538582 0.5946707317 -4.2061449813 4.9202993877 0.4584763434 -4.2213606847 4.9279119827 0.4586708904 -4.2311497695 4.9323540296 0.4746161240 -4.2297617427 4.9387478160 0.4737611370 -4.2383831079 4.8290264947 0.3872682565 -4.3845482405 4.7865503912 0.6669025320 -4.1178614782 4.7853070550 0.7093453789 -4.3301454438 5.0065088119 0.4596352030 -4.3615775941 5.0142044970 0.4709979073 -4.3619459643 4.8504539193 0.7963613398 -4.2172945452 4.9931210878 0.7540527154 -4.2587077443 5.0043580671 0.7726164779 -4.2695112280 4.9206038590 0.8491945128 -4.4208572604 5.3100621752 0.2905979149 -4.5336019229 5.3159744076 0.2888429643 -4.5459015099 5.3065361238 0.1489929966 -4.5676899284 5.2948243403 0.1412347491 -4.5463054977 4.9980686118 0.0361432586 -4.7414855393 5.1127642601 0.2119850677 -4.6993069715 5.1935823777 0.3475447194 -4.6733828261 5.2042381548 0.3552535187 -4.6712797352 5.0391247045 0.2734674916 -4.5765535706 5.0332609368 0.2717160492 -4.5674302668 5.1051180729 0.1719753814 -4.4593542922 4.9972490819 0.2082402836 -4.4885752028 4.5953532438 0.3798597340 -4.4750375443 4.5902073945 0.3741772747 -4.4649143729 4.5863979159 0.3961911595 -4.3453992262 4.5920671687 0.4052118898 -4.3395015680 4.5888895079 0.4132804964 -4.3307436505 4.5944011237 0.4202761424 -4.3267114822 4.5912683202 0.4270845530 -4.3190802718 4.5880255576 0.4338496633 -4.3114972880 4.5935762292 0.4395354981 -4.3086507364 4.5904044287 0.4464534000 -4.3009221015 4.5510696409 0.5375765238 -4.3721052478 4.5555409964 0.5427716145 -4.3735124119 4.6090377486 0.5765732135 -4.2429667114 4.6044976276 0.5855917485 -4.2510092377 4.6799383579 0.3110101067 -4.3004794279 4.7408094321 0.2331030427 -4.4002620292 4.7367538677 0.2243268566 -4.3975754240 4.7463855771 0.2339636580 -4.4037977183 4.7310187103 0.2181425724 -4.3938624732 4.7427192229 0.2238573578 -4.4013271674 4.7514970825 0.2366198469 -4.4070638339 4.7563699731 0.2412272370 -4.4102070373 4.7612356870 0.2482156516 -4.4133751683 4.7663795618 0.2584268330 -4.4167455922 4.6257115839 0.2327171807 -4.2569585082 4.7730825332 0.2569863442 -4.4209695905 4.8339709684 0.2578004430 -4.3603811297 4.6567569326 0.1588337288 -4.2564788677 4.6130817745 0.0844336381 -4.2869805382 4.6263942992 0.0617441104 -4.2976439301 4.7040994156 -0.0206666088 -4.2894767050 4.8313239749 0.0565543650 -4.3473943529 4.8434775855 0.0763716779 -4.3550235676 4.8490856254 0.0865907600 -4.3585336516 4.8558031804 0.0916870180 -4.3628551421 5.3365199473 0.1604012268 -4.7072833544 5.2913907837 0.0810694168 -4.7155939675 5.3680466971 0.0950079415 -4.5256535353 4.8970315396 0.1736057693 -4.2973299358 4.8482028032 0.2560261891 -4.2969521153 5.2211201140 0.6725334343 -4.4108764084 5.1688062081 0.6054077427 -4.5665145235 5.2648205972 0.6629635198 -4.5488446781 5.2620282529 0.6659674389 -4.5545261392 5.2652468116 0.6722115193 -4.5523408995 5.1886485987 0.7369910264 -4.5624430225 4.9425431221 0.4770410995 -4.5991373180 5.0163023909 0.4823900421 -4.6008315058 5.0206907445 0.5014614346 -4.5949965023 5.0295008646 0.4946903785 -4.6052783350 4.9119287195 0.5408206962 -4.7309007846 4.9151930827 0.5550237095 -4.7308443253 4.9169048867 0.5683191383 -4.7290466316 4.9238293841 0.5533285863 -4.7412606447 4.9255991585 0.5665013859 -4.7393924795 4.9260332709 0.5790797622 -4.7361092128 4.9335238827 0.5764380001 -4.7455773708 4.9331533552 0.5885803491 -4.7411953486 5.0951404367 0.6300596488 -4.6693517614 5.1035865343 0.6331396929 -4.6756090455 5.1120146282 0.6362168647 -4.6818577829 5.1599762606 0.4575669344 -4.7691430746 5.1673741504 0.4681980346 -4.7714019580 5.1207459034 0.6394868980 -4.6883787529 5.1745341599 0.4785497247 -4.7737428096 5.0195122563 0.7269687145 -4.7770291479 5.1301756536 0.6431913810 -4.6955163007 5.0269940042 0.7261132364 -4.7866536635 5.1408899897 0.6476902171 -4.7037780973 5.0911855203 0.7529031232 -4.7726774481 5.1874067151 0.5496219199 -4.8706671955 5.0968277942 0.6260161031 -4.8937822441 5.1955796569 0.5566224263 -4.8655400831 5.1099113035 0.6393962408 -4.9053532347 5.2541856483 0.6670459785 -4.7986130222 4.7487928886 0.6997875398 -4.6448124607 4.7568177827 0.7010231448 -4.6488790814 4.7508718955 0.7100469712 -4.6499585733 4.7590474462 0.7110118009 -4.6536803668 4.7533038356 0.7211060106 -4.6554762161 4.7665686177 0.7117527329 -4.6573828248 4.7616984739 0.7217744014 -4.6593027306 4.8450048572 0.6061714411 -4.7516491298 4.7735590138 0.7127500676 -4.6608091553 4.8457748533 0.6137694260 -4.7448994295 4.7695928936 0.7225666281 -4.6629397028 4.8498738939 0.6174678405 -4.7538518043 4.8506220427 0.6244771676 -4.7476182648 4.8513694231 0.6310175368 -4.7421644169 4.8557406003 0.6365481172 -4.7508470461 4.9851744063 0.0963345527 -4.3849856754 4.9821355164 -0.0009179990 -4.3238127101 4.8085827073 0.0905566640 -4.2520282219 4.8829312029 0.0381008446 -4.2382590923 4.8123799774 -0.0119943795 -4.2191445459 4.8034336311 -0.0039265934 -4.2281902374 5.4778291362 0.4100444734 -4.6135020416 4.6400911464 0.0938523762 -4.5315734277 4.7037219540 0.0341880022 -4.5649969061 4.7169241500 0.0301080306 -4.5624600123 4.7305344716 0.1251354283 -4.5891148702 4.7340596420 0.1229196816 -4.5900139740 4.7380078768 0.1260951979 -4.5888242434 4.7547437614 0.1495669239 -4.5216882364 4.7635352760 0.1551357961 -4.5233765760 4.5482815012 0.8379995234 -4.2088787730 4.8549972656 0.4395741905 -4.5696654306 4.8518630292 0.4295851206 -4.5677303748 4.9713088897 0.3473828108 -4.5566321612 5.0644926909 0.5690082776 -4.9355265882 5.0567043485 0.5731093878 -4.9309236705 5.1559200423 0.0553003140 -4.7623022799 5.1326572449 0.0644952295 -4.7184658288 5.1426696194 0.0692547387 -4.7179738607 5.1361001462 0.0706744759 -4.7136887838 5.2274597946 0.1053602104 -4.7746534078 5.2359741787 0.1187718623 -4.7735054216 5.0977914315 0.1756627008 -4.8022270259 5.1026283623 0.1795793467 -4.8025499066 5.0333185964 0.0990421358 -4.2672513419 5.0347941949 0.1002592852 -4.2765749079 5.3398018122 0.5893198688 -4.7643531569 5.3055449100 0.5822189499 -4.6739741153 5.3087735744 0.4606352987 -4.7447858763 5.3044627856 0.4575931014 -4.7400566807 5.3039195655 0.4529037705 -4.7446224025 5.3000359583 0.4503065516 -4.7399851871 5.2540916351 0.3678285503 -4.8067782545 4.6957319862 0.8326788709 -4.5357631149 5.2306745822 0.6281874275 -4.6488838254 5.1351938046 0.5738245304 -4.5867737036 5.1276223020 0.5776254689 -4.5806722661 4.6598108889 0.8232628417 -4.2216603319 4.6668404204 0.8223925146 -4.2179972764 4.6129952117 0.2196637436 -4.4978639667 4.6945822785 0.2231799708 -4.5952243565 4.6473320197 0.3623255632 -4.5325133624 4.7477091419 0.0831896487 -4.2072512527 4.7827209413 0.1234411879 -4.2273796895 5.0181761909 -0.0025582768 -4.4971635466 5.1057413238 -0.0028878997 -4.5210534384 5.0714372154 -0.0032760588 -4.5486641347 4.8711600191 0.8227515324 -4.1422592097 4.7334232312 0.8604368306 -4.2639957492 5.1448394689 0.1177461122 -4.4029307253 5.1472053758 0.1165064495 -4.4082016357 5.1421968126 0.1123088860 -4.4042761025 5.0340202916 0.1197435547 -4.4162304906 5.2644165805 0.1563401005 -4.8848209442 5.2677119705 0.3066335232 -4.8978191446 5.2654138823 0.3111079601 -4.8955888852 4.7055057033 0.8166708968 -4.5910162188 4.6970836613 0.8245125948 -4.5877702721 4.8245059062 0.7776842036 -4.6723299807 4.7807161278 0.8997043348 -4.6686772320 5.0971147300 0.7355999059 -4.2886515945 5.0903102083 0.7353515910 -4.2117370255 5.1483078638 0.0856120914 -4.9671140592 4.6808901141 0.0187404711 -4.4902238680 4.6256119027 -0.0002231971 -4.5191828753 4.6196265376 -0.0012710731 -4.5228974621 4.8106150965 0.7061510493 -4.0916238241 4.8090676482 0.7040479340 -4.0902554796 4.9122741894 0.7754892790 -4.1385900456 4.7628286703 0.7497069456 -4.4817037654 4.8219919146 0.8737244724 -4.4476187445 4.8308579803 0.8752051589 -4.4595778833 4.8031102152 0.8514792071 -4.4763766080 4.5406388942 0.1468174859 -4.4187539544 4.6091222775 0.0757094946 -4.4944840826 5.1668087756 0.8800991016 -4.6773900051 5.2577680004 0.8690416126 -4.6259398484 5.1589723394 0.8827396980 -4.6685562931 5.2546513528 0.8475857677 -4.6248071781 5.2984806197 0.6348726142 -4.5947091797 5.3012292274 0.6388435686 -4.5969907546 5.2976399868 0.6411808381 -4.5997123948 5.3004615989 0.6459251497 -4.6025421566 5.3223742708 0.3554448803 -4.7286555947 4.7910197886 -0.0095539845 -4.1328384367 5.1572658522 0.0316713460 -4.6484877817 5.1589421531 0.0264098392 -4.6552655054 5.2537834029 0.0200758970 -4.8114848285 5.2521661777 0.0127298101 -4.8052876607 5.2654697069 0.0058397950 -4.7642714116 5.2636610962 0.0086090471 -4.7546580876 4.7305267671 0.1003971700 -4.6485977003 4.7866141148 0.2744432854 -4.6063173347 5.1812288608 0.8402002779 -4.7905183518 5.1812291736 0.8487848125 -4.7898078492 5.1028497984 0.8742359603 -4.7651926098 5.1645179798 0.0073582599 -4.4489770420 4.6526038371 0.0649172355 -4.4677840450 4.9790270967 0.4293686042 -4.1488852903 4.8167148022 0.5425100380 -4.0336948538 5.1034414787 0.1049184053 -5.0023854993 5.1047644393 0.1127156527 -4.9928860146 5.1110615874 0.1154649131 -4.9942492879 5.1127482295 0.1204318363 -4.9888640829 5.1150245403 0.1243931583 -4.9853132348 5.1179915344 0.1277226980 -4.9831779463 5.1218622367 0.1306431317 -4.9823214709 5.1422010978 0.0151483956 -4.5811309497 5.1314673283 0.0131524554 -4.5745410747 5.1629335197 0.0213396903 -4.5911037678 5.0524061843 0.0275403782 -4.5494583178 5.1650581773 0.2827222628 -4.9622586607 5.5456302362 0.3088368013 -4.5457989196 4.5971788554 0.5706318982 -4.4398702082 4.5886294640 0.5581198753 -4.4422052330 4.7399029754 0.6028731645 -4.4700744416 4.7271996003 0.4757712340 -4.5621133525 4.7733697613 0.6798305095 -4.5200036062 4.7760203512 0.6764120901 -4.5212852284 4.8222373774 0.4499568083 -4.6792170696 4.8092444133 0.4507847375 -4.6763391556 4.8213799343 0.3837457239 -4.1264871620 4.7381435022 0.2587856492 -4.1836094595 4.7810881126 0.2368875589 -4.1292041976 4.7440273756 0.2498522835 -4.1864369494 4.5921331085 0.0089105049 -4.4000584298 4.9466065306 0.7426040911 -4.1793832457 5.0261654117 0.0025329340 -4.3362555786 5.0119808625 -0.0212604393 -4.2767898434 4.6414864174 0.3693619705 -4.2817255984 4.6351326141 0.3665387974 -4.2793419524 5.3191795343 0.8538814527 -4.5816102907 5.1450024898 -0.0519977627 -4.4399419303 4.8841447819 0.8682618421 -4.5067094053 4.8774014862 0.8621489481 -4.5061011918
        </DataArray>
      </Points>
      <Cells>
        <DataArray type="Int32" Name="connectivity" format="ascii">
 0 1 2 3 4 5 6 7 8 9 10 11 12 13 14 15 16 17 18 19 20 21 22 23 24 25 26 27 28 29 30 31 32 33 34 35 36 37 38 39 40 41 42 43 44 45 46 47 48 49 50 51 52 53 54 55 56 57 58 59 60 61 62 63 64 65 66 67 68 69 70 71 72 73 74 75 76 77 78 79 80 81 82 83 84 85 86 87 88 89 90 91 92 93 94 95 96 97 98 99 100 101 102 103 104 105 106 107 108 109 110 111 112 113 114 115 116 117 118 119 120 121 122 123 124 125 126 127 128 129 130 131 132 133 134 135 136 137 138 139 140 141 142 143 144 145 146 147 148 149 150 151 152 153 154 155 156 157 158 159 160 161 162 163 164 165 166 167 168 169 170 171 172 173 174 175 176 177 178 179 180 181 182 183 184 185 186 187 188 189 190 191 192 193 194 195 196 197 198 199 200 201 202 203 204 205 206 207 208 209 210 211 212 213 214 215 216 217 218 219 220 221 222 223 224 225 226 227 228 229 230 231 232 233 234 235 236 237 238 239 240 241 242 243 244 245 246 247 248 249 250 251 252 253 254 255 256 257 258 259 260 261 262 263 264 265 266 267 268 269 270 271 272 273 274 275 276 277 278 279 280 281 282 283 284 285 286 287 288 289 290 291 292 293 294 295 296 297 298 299 300 301 302 303 304 305 306 307
        </DataArray>
        <DataArray type="Int32" Name="offsets" format="ascii">
 1 2 3 4 5 6 7 8 9 10 11 12 13 14 15 16 17 18 19 20 21 22 23 24 25 26 27 28 29 30 31 32 33 34 35 36 37 38 39 40 41 42 43 44 45 46 47 48 49 50 51 52 53 54 55 56 57 58 59 60 61 62 63 64 65 66 67 68 69 70 71 72 73 74 75 76 77 78 79 80 81 82 83 84 85 86 87 88 89 90 91 92 93 94 95 96 97 98 99 100 101 102 103 104 105 106 107 108 109 110 111 112 113 114 115 116 117 118 119 120 121 122 123 124 125 126 127 128 129 130 131 132 133 134 135 136 137 138 139 140 141 142 143 144 145 146 147 148 149 150 151 152 153 154 155 156 157 158 159 160 161 162 163 164 165 166 167 168 169 170 171 172 173 174 175 176 177 178 179 180 181 182 183 184 185 186 187 188 189 190 191 192 193 194 195 196 197 198 199 200 201 202 203 204 205 206 207 208 209 210 211 212 213 214 215 216 217 218 219 220 221 222 223 224 225 226 227 228 229 230 231 232 233 234 235 236 237 238 239 240 241 242 243 244 245 246 247 248 249 250 251 252 253 254 255 256 257 258 259 260 261 262 263 264 265 266 267 268 269 270 271 272 273 274 275 276 277 278 279 280 281 282 283 284 285 286 287 288 289 290 291 292 293 294 295 296 297 298 299 300 301 302 303 304 305 306 307 308
        </DataArray>
        <DataArray type="UInt8" Name="types" format="ascii">
 1 1 1 1 1 1 1 1 1 1 1 1 1 1 1 1 1 1 1 1 1 1 1 1 1 1 1 1 1 1 1 1 1 1 1 1 1 1 1 1 1 1 1 1 1 1 1 1 1 1 1 1 1 1 1 1 1 1 1 1 1 1 1 1 1 1 1 1 1 1 1 1 1 1 1 1 1 1 1 1 1 1 1 1 1 1 1 1 1 1 1 1 1 1 1 1 1 1 1 1 1 1 1 1 1 1 1 1 1 1 1 1 1 1 1 1 1 1 1 1 1 1 1 1 1 1 1 1 1 1 1 1 1 1 1 1 1 1 1 1 1 1 1 1 1 1 1 1 1 1 1 1 1 1 1 1 1 1 1 1 1 1 1 1 1 1 1 1 1 1 1 1 1 1 1 1 1 1 1 1 1 1 1 1 1 1 1 1 1 1 1 1 1 1 1 1 1 1 1 1 1 1 1 1 1 1 1 1 1 1 1 1 1 1 1 1 1 1 1 1 1 1 1 1 1 1 1 1 1 1 1 1 1 1 1 1 1 1 1 1 1 1 1 1 1 1 1 1 1 1 1 1 1 1 1 1 1 1 1 1 1 1 1 1 1 1 1 1 1 1 1 1 1 1 1 1 1 1 1 1 1 1 1 1 1 1 1 1 1 1 1 1 1 1 1 1 1 1 1 1 1 1 1 1 1 1 1 1
        </DataArray>
      </Cells>
      <PointData Scalars="overlap">
        <DataArray type="Float32" Name="overlap" format="ascii">
 0.0001327383 0.0002662199 0.0000903271 0.0006651523 0.0000183555 0.0005709006 0.0000558408 0.0000892522 0.0000531280 0.0001402196 0.0000540277 0.0002476515 0.0003090829 0.0000148245 0.0000510014 0.0000238875 0.0003257025 0.0000010625 0.0002195137 0.0000974365 0.0000996864 0.0003399703 0.0002114572 0.0003056514 0.0001663076 0.0002872774 0.0002276152 0.0001273218 0.0004617565 0.0000279406 0.0000829121 0.0000807955 0.0001864421 0.0000384692 0.0001892611 0.0000983277 0.0000916781 0.0000943546 0.0002518889 0.0002134555 0.0005393568 0.0000323407 0.0002009050 0.0000953242 0.0001158489 0.0001627895 0.0001954577 0.0003623878 0.0001407856 0.0000011576 0.0000840928 0.0002343596 0.0000217356 0.0000261478 0.0000037226 0.0000023188 0.0000830765 0.0003302495 0.0001023498 0.0000542125 0.0001191101 0.0000215024 0.0000013821 0.0000083669 0.0000461884 0.0002230382 0.0000342014 0.0000968693 0.0000022073 0.0000069841 0.0000258794 0.0001744741 0.0000677258 0.0000821004 0.0000022180 0.0001843528 0.0000637804 0.0001163921 0.0000587362 0.0000363800 0.0000362299 0.0000440564 0.0000514226 0.0000130725 0.0000422791 0.0000001476 0.0000083019 0.0000104457 0.0001004608 0.0000738130 0.0000376465 0.0000518717 0.0000219626 0.0000483873 0.0000356860 0.0000721536 0.0000114339 0.0000337230 0.0000867150 0.0001021973 0.0001152374 0.0000988754 0.0000468854 0.0001180038 0.0000416934 0.0000459061 0.0000272406 0.0000501761 0.0000085863 0.0000069704 0.0000943189 0.0000503712 0.0000226613 0.0000106883 0.0000240167 0.0000810407 0.0000199687 0.0000236816 0.0002011534 0.0000540242 0.0000605762 0.0001973298 0.0000285882 0.0002912159 0.0001926612 0.0003165390 0.0002443721 0.0001578893 0.0002269741 0.0005534442 0.0003563383 0.0001042593 0.0005594887 0.0004407508 0.0000800138 0.0002025285 0.0000257426 0.0000448008 0.0000542939 0.0002100493 0.0003240753 0.0000599932 0.0002469933 0.0002759602 0.0000644207 0.0000592825 0.0000587181 0.0000282787 0.0000091407 0.0000305597 0.0001550126 0.0002863506 0.0001608064 0.0000079211 0.0002615529 0.0002430513 0.0001444453 0.0000736149 0.0003850094 0.0003566455 0.0001030865 0.0000407784 0.0003306862 0.0001584059 0.0002500700 0.0005865885 0.0001894836 0.0002160901 0.0000306060 0.0000452422 0.0000921562 0.0000081586 0.0000724596 0.0000036395 0.0000233219 0.0000020232 0.0000020992 0.0000244897 0.0000024275 0.0000194754 0.0000087824 0.0000016317 0.0000114998 0.0000395793 0.0000236212 0.0000121028 0.0000221669 0.0001117636 0.0000699724 0.0000566900 0.0000211876 0.0000301668 0.0000855474 0.0000342121 0.0000007939 0.0002177067 0.0000417296 0.0000061013 0.0001787317 0.0000531092 0.0000227685 0.0000115872 0.0001605299 0.0001251223 0.0001568852 0.0001022906 0.0000476801 0.0000550808 0.0000163520 0.0000321255 0.0000504974 0.0000567762 0.0002207504 0.0000897099 0.0001563254 0.0000081544 0.0000314077 0.0000209909 0.0000114503 0.0000015051 0.0000067087 0.0000064196 0.0000672625 0.0000215949 0.0000113958 0.0000359372 0.0000128298 0.0000172658 0.0000254927 0.0000955416 0.0000879914 0.0000897333 0.0000277066 0.0000436166 0.0000541745 0.0000295299 0.0001498448 0.0000745649 0.0000919098 0.0000097916 0.0000019613 0.0000439262 0.0000958004 0.0000504672 0.0000412731 0.0001279664 0.0000520911 0.0000884964 0.0001340291 0.0000041861 0.0000188779 0.0000527694 0.0000041128 0.0000014896 0.0000193738 0.0000221168 0.0000477958 0.0000048807 0.0000826259 0.0000293367 0.0000280238 0.0000029534 0.0000221484 0.0000465944 0.0000103108 0.0000084524 0.0000488707 0.0000262378 0.0000042981 0.0000192370 0.0000367864 0.0000441218 0.0000179984 0.0000641112 0.0000131747 0.0000871578 0.0000490588 0.0000253059 0.0000198629 0.0000267936 0.0000280749 0.0000129979 0.0000253932 0.0000029501 0.0000230970 0.0000087910 0.0000666628 0.0000217553 0.0000559000 0.0000135468 0.0000115427 0.0000090306 0.0000154742 0.0000221333 0.0000196864 0.0000206427 0.0000005985 0.0000156541 0.0000707911 0.0000106640 0.0000294161 0.0000686356 0.0000190706 0.0000234090 0.0000005784 0.0000824631 0.0000116294 0.0000578526
        </DataArray>
        <DataArray type="Float32" Name="contact normal" NumberOfComponents="3" format="ascii">