<?xml version="1.0"?>
<VTKFile type="UnstructuredGrid" version="0.1" byte_order="LittleEndian">
  <UnstructuredGrid>
    <FieldData>
      <DataArray type="Float32" Name="TIME"  NumberOfTuples="1" format="ascii"> 0.9500000000 </DataArray>
      <DataArray type="Int32"   Name="STEP"  NumberOfTuples="1" format="ascii"> 95000 </DataArray>
    </FieldData>
    <Piece NumberOfPoints="300" NumberOfCells="300">
      <Points>
        <DataArray type="Float32" NumberOfComponents="3" format="ascii">
 1.4752652665 0.1907112246 -1.3458446778 1.5872247733 0.1138216009 -1.3240358169 1.5920946713 0.1277999715 -1.3083755464 1.5266112245 0.1177018725 -1.4482521205 1.6040821358 0.1248048419 -1.3248473819 1.6561874722 0.0941068456 -1.4700498884 1.6518195462 0.3406522723 -1.3168377979 1.6636122151 0.3351015511 -1.3237230391 1.6690717574 0.4242854300 -1.3374278809 1.7640601675 0.1641119554 -1.5153421691 1.7719489538 0.1707339713 -1.5158163185 1.7348466751 0.4362871166 -1.4287218954 1.7201817321 0.3670797050 -1.6017473263 1.7304892880 0.3642725923 -1.6108739352 1.7508754504 0.3796706345 -1.6199013843 1.8740323389 0.3679577609 -1.4849068750 1.8962025087 0.3543902312 -1.5792146111 2.1184914200 0.2624971048 -1.1172276537 2.0732153270 0.3176373377 -1.2116793027 2.0737751267 0.3129453290 -1.2201011328 2.1722878397 0.5078598074 -1.2898283423 2.1740600923 0.4985476035 -1.3099385335 2.1627742640 0.2773434980 -1.3344291177 2.1645032886 0.2905823829 -1.3428174919 2.1315421454 0.4554113464 -1.4148377603 2.1231255937 0.4376632054 -1.3998949573 1.3345866658 0.7790208669 -1.2087762100 1.2608715149 0.8758271464 -1.0633786210 1.2720676024 0.8765014273 -1.0652549829 1.2580768064 0.8776859591 -1.0520021947 1.2700410171 0.8784458113 -1.0544633911 1.2922711239 0.7010999042 -1.1231372878 1.3818395904 0.7993867365 -1.1732414023 1.2983902141 0.6966695657 -1.1231672665 1.3880762516 0.7911864173 -1.1774343339 1.2740760433 0.7728911025 -0.9982067027 1.2815602260 0.7668382453 -1.0004379815 1.7158329644 0.7332494572 -1.2784001373 1.8108784153 0.7311139852 -1.3434016215 1.7195573442 0.7191851346 -1.3967440969 1.7237768713 0.7228975607 -1.4001134057 1.7188312281 0.7247039077 -1.4036411577 1.5809536422 0.7452515430 -1.3537558622 1.8228042518 0.8347156613 -1.4003218048 1.6560644183 0.8281989102 -1.3249765691 1.6511711676 0.8291831432 -1.3305813691 1.6595510070 0.8331538599 -1.3303852395 1.6551965205 0.8343550898 -1.3363036382 1.6514215235 0.8360660715 -1.3429099809 1.4636855851 0.4397408287 -0.9747880069 1.5387299866 0.4345772227 -0.8837186743 1.3900342211 0.6243272768 -0.9974927598 1.3653697384 0.6503132662 -0.9451508646 1.4063634428 0.6259314675 -1.0148688556 1.6204276508 0.5034731111 -0.9357322678 1.6285713360 0.5026523851 -0.9450501813 1.6336034538 0.5184743402 -0.9445493496 1.6404221301 0.5167404984 -0.9527005576 1.5352047366 0.4240280344 -1.0983735215 1.4902357079 0.7239133019 -0.8551222652 1.5023011954 0.7506597511 -1.0696179225 1.7141081517 0.4910140366 -1.0705067191 1.7202264031 0.8097694453 -1.0012288745 1.6481225038 0.8781770991 -1.1621712281 2.0191486900 0.2980612580 -1.2127151071 2.0256815705 0.2953328952 -1.2245121643 1.9986605211 0.1488760690 -1.2174621186 1.8278866863 0.2153206306 -1.3831325018 1.9128630815 0.3492036322 -1.3623683088 1.9237175559 0.3566267384 -1.3602074234 1.7439755308 0.2875771868 -1.2605983705 1.8055811270 0.1933531650 -1.1417699400 1.7010798112 0.2314947355 -1.1796094655 1.3066855707 0.4189821072 -1.2012746833 1.3007605097 0.4142523325 -1.1910811505 1.2914233608 0.4451078879 -1.0738561336 1.2971422720 0.4543128173 -1.0683010695 1.2938394850 0.4631201244 -1.0603372208 1.2994165122 0.4701757345 -1.0565044160 1.2961659631 0.4776426893 -1.0495702455 1.2928064539 0.4850671963 -1.0426873195 1.2984311949 0.4907287964 -1.0399395510 1.2951410849 0.4983135453 -1.0329184152 1.2664575913 0.5817999553 -1.1187688047 1.2636217940 0.5853971247 -1.1125322226 1.2683782215 0.5903001246 -1.1140488206 1.3161078559 0.6315275170 -0.9834044818 1.3123968514 0.6400957817 -0.9923174653 1.3786923247 0.3599462612 -1.0177307231 1.4415187637 0.2726223950 -1.1080627825 1.4369538642 0.2642301089 -1.1049938899 1.4473100149 0.2730054554 -1.1113261902 1.4307679397 0.2585608951 -1.1011836793 1.4430885420 0.2632567806 -1.1083554151 1.4526994808 0.2752156014 -1.1144756724 1.4486410784 0.2637777390 -1.1114983151 1.4579272223 0.2793884399 -1.1176554439 1.4632504256 0.2859325350 -1.1210301257 1.4689991650 0.2956627065 -1.1248200178 1.3189032011 0.2872078509 -0.9719185302 1.4758540403 0.2936586273 -1.1285404309 1.5333439959 0.2965877813 -1.0647889529 1.5413758042 0.2931536780 -1.0681116057 1.3467124125 0.2124225944 -0.9643911824 1.3016313705 0.1377125717 -0.9919538559 1.3145333549 0.1138081455 -1.0001932774 1.3881049254 0.0292931799 -0.9817380212 1.5214479806 0.0970942757 -1.0376516373 1.5348291349 0.1158145129 -1.0459666344 1.5410489776 0.1255243902 -1.0498694603 1.5482012986 0.1300267715 -1.0541526142 2.0682367613 0.1017421147 -1.1872855756 1.5905738603 0.2183838358 -0.9951202338 1.5434913641 0.2983189601 -1.0006507053 1.9395200317 0.6913888879 -1.1224909260 1.9394828744 0.7023524605 -1.1205602802 1.9474219241 0.7051950554 -1.1174271533 1.8938146163 0.6144697648 -1.2756617244 2.0025477972 0.8115757745 -1.1566417546 1.9906939148 0.6700329090 -1.2565639283 1.9846214141 0.6660607217 -1.2648270999 1.9883302078 0.6726936212 -1.2625991010 1.9916572785 0.6789725526 -1.2606974281 1.9859590994 0.6758367803 -1.2686089655 1.9131788432 0.7449241934 -1.2745013299 1.9181913360 0.7452344347 -1.2800714556 1.9243039743 0.7467815039 -1.2855976979 1.6639758053 0.4933375552 -1.3119242469 1.7378670890 0.4957172318 -1.3097931318 1.7427435348 0.5149958526 -1.3050915203 1.7518028544 0.5071563994 -1.3143476741 1.6432564083 0.5483858710 -1.4494247600 1.6471076039 0.5624201874 -1.4501954920 1.6492715738 0.5757383196 -1.4492650587 1.6562441682 0.5596277556 -1.4599298959 1.6584601275 0.5728263593 -1.4589100767 1.6592335808 0.5855899530 -1.4565239937 1.6671367371 0.5819671645 -1.4653118716 1.6670251228 0.5944091639 -1.4618486301 1.8172180627 0.6323845647 -1.3777991919 1.8264724238 0.6348322257 -1.3840535178 1.8353674172 0.6371193919 -1.3900221720 1.8442438635 0.6394050073 -1.3959831382 1.8892558000 0.4531350212 -1.4674481949 1.8972084274 0.4632804187 -1.4700325037 1.8534456618 0.6418512452 -1.4022116357 1.9049163338 0.4731504337 -1.4726921071 1.7609492768 0.7263766925 -1.5024753295 1.9125482876 0.4828400851 -1.4755535526 1.8633960184 0.6446584723 -1.4090452183 1.7689142482 0.7244824855 -1.5115654092 1.8747223434 0.6481256701 -1.4169816242 1.8333100636 0.7498253402 -1.4959202378 1.9260061065 0.5363647581 -1.5735241441 1.8401272555 0.6142534670 -1.6071590129 1.9341789544 0.5434052695 -1.5684514769 1.8543708255 0.6262367746 -1.6188884276 1.9936934108 0.6561247621 -1.5063341524 1.4920092606 0.7377055375 -1.3994677840 1.5770623240 0.6104577961 -1.4742660724 1.5780788201 0.6183125836 -1.4688098051 1.5004948552 0.7376958730 -1.4031339574 1.5822828031 0.6201286615 -1.4772834240 1.5084695917 0.7378267604 -1.4066995269 1.5830709451 0.6274246822 -1.4719618715 1.5160529339 0.7382294781 -1.4103259694 1.5877258674 0.6303407214 -1.4807062406 1.5133767903 0.7478643044 -1.4149430005 1.5234261083 0.7390177591 -1.4141723330 1.5885033623 0.6373118210 -1.4757931879 1.5215814087 0.7483762685 -1.4191810415 1.5307960584 0.7403610029 -1.4184531436 1.5946891926 0.6488960010 -1.4806610972 1.6786894404 0.1280745643 -1.0691516898 1.6682164244 0.0357602771 -1.0014987538 1.4950684139 0.1388311136 -0.9464115629 1.5737306712 0.0811875343 -0.9286685429 1.4927369622 0.0388947470 -0.9061706599 1.4846433677 0.0466135650 -0.9162626599 2.1958353138 0.4049974576 -1.2908251921 1.4175795565 0.0593335889 -1.2566326845 1.4302257599 0.1510086032 -1.2896159539 1.4370929416 0.1515081632 -1.2890374691 1.4405593333 0.1490905245 -1.2895710566 1.4584338531 0.1797775238 -1.2221542657 1.4638840459 0.1304989536 -0.7927312007 1.4658231815 0.1353093427 -0.7979360071 1.5876425475 0.1784646897 -0.7574147527 1.2744698278 0.9051974961 -0.9728183478 1.5733922371 0.4615483230 -1.2849240238 1.5697290887 0.4518575185 -1.2824669877 1.6847943564 0.3661566680 -1.2587168072 1.8076982738 0.5556346097 -1.6465029384 1.7998525427 0.5603585037 -1.6426561237 1.8677154918 0.0529086258 -1.4322310179 1.8425214914 0.0661835366 -1.3905625579 1.8526850440 0.0705783642 -1.3898403591 1.8459595215 0.0725604061 -1.3860492854 1.9418870567 0.0991268745 -1.4440058303 1.8170167386 0.1721494444 -1.4838900036 1.8220263162 0.1758427269 -1.4842139357 2.0739526165 0.5778514914 -1.4618092172 2.0364722713 0.4522481845 -1.4349232566 2.0317849730 0.4497318998 -1.4302418123 2.0312924434 0.4447417311 -1.4344860689 2.0270568112 0.4426434765 -1.4299043077 1.9813421882 0.3572929059 -1.4931624094 1.9604669298 0.6292922839 -1.3558202612 1.3760673774 0.8769754358 -0.9768499639 1.3828441849 0.8761054823 -0.9727380305 1.3187980673 0.2569949757 -1.2116284353 1.4057604769 0.2502854198 -1.3040092946 1.4315676712 0.1370809498 -0.9048185505 1.4693217144 0.1743806300 -0.9256728310 1.3782032472 0.2479830841 -0.9582556504 1.7379972836 0.0114005643 -1.0599456717 1.7142726784 0.0276916016 -1.1658275196 1.7148908229 0.0231604685 -1.1713934033 1.8024119190 0.0138538077 -1.1877160012 1.4533849772 0.9080990558 -1.0174561791 1.8205589025 0.2117657318 -1.0513127970 1.8308727396 0.2093535252 -1.0549813885 1.8369683354 0.1366239901 -1.0804749512 1.7300863023 0.1472288427 -1.0992042397 1.5750440051 0.7745722788 -1.4219903560 1.5844394965 0.7829156142 -1.4295812275 1.5527760080 0.9046640704 -1.4488805246 1.8122446957 0.7679024548 -1.0123499797 1.8012629046 0.7735793798 -0.9361138834 1.8823852924 0.0750293747 -1.6386559360 1.8751041585 0.0613711053 -1.6504886811 1.5759783210 0.9064968410 -1.3261331933 1.3227371624 0.0328477321 -1.2193688813 1.3171610369 0.0406043184 -1.2159409852 1.3170731726 0.0316079005 -1.2235006913 1.3109786232 0.0390376758 -1.2207614199 1.5157289931 0.7663190311 -0.8319453759 1.5195890494 0.7653334729 -0.8322776218 1.5142489829 0.7641810398 -0.8304482242 1.5182504386 0.7632291618 -0.8308242085 1.5125374357 0.7622491350 -0.8290239545 1.5167445212 0.7613212143 -0.8294596386 1.6213041164 0.8256933754 -0.8763121773 1.4898368216 0.7806390085 -1.2246891478 1.5522649312 0.9044615125 -1.1961998513 1.5618228762 0.9047174317 -1.2077066074 1.5340476763 0.8809010403 -1.2243315796 1.2392840780 0.1930186804 -1.1316893569 1.2334041662 0.1868688410 -1.1321200271 1.3087818343 0.1139675169 -1.1980523912 1.9089932059 0.8806867695 -1.4057982425 1.9008107645 0.8842769877 -1.3976358271 1.9924087077 0.8487156606 -1.3461190583 2.0283270136 0.6476913954 -1.3069247672 2.0251280566 0.6506343205 -1.3106074269 2.0446945585 0.3480958425 -1.4105778673 1.4672388867 0.0485351613 -0.8218189498 1.8618994692 0.0376670541 -1.3171364078 1.8637161377 0.0318616063 -1.3234155350 1.8626314385 0.0254149088 -1.4035395417 1.9665251128 0.0104341016 -1.4731154654 1.9750252471 -0.0007328740 -1.4244140601 1.9728173349 0.0028063388 -1.4151434808 1.4331279146 0.1228165334 -1.3549508759 1.5002132836 0.2969088810 -1.3135496418 1.9278430902 0.8321044260 -1.5147020936 1.9281722234 0.8407129111 -1.5146061226 1.8497042111 0.8708437371 -1.4964585483 1.6736514474 0.4775098560 -0.8580066387 1.5103910919 0.6049745367 -0.7607106393 1.8304792252 0.0867893820 -1.6778843886 1.8380914129 0.0975971902 -1.6700909252 1.8396942638 0.1028749813 -1.6649829489 1.8488692464 0.1131739217 -1.6586668199 1.8425127486 0.0267178365 -1.2497503132 1.8313616470 0.0256271419 -1.2436595219 1.8640003663 0.0313574488 -1.2589359931 1.8973951879 0.2644539232 -1.6469540587 2.2554972075 0.3065909339 -1.2123931907 1.4419649486 0.4512996724 -1.2961191947 1.4414368242 0.4516916298 -1.2889425332 1.3146806763 0.6115573914 -1.1797424765 1.3057493480 0.5992452075 -1.1816703136 1.4600777874 0.6360340216 -1.2039372163 1.4470311406 0.5031144884 -1.2873157646 1.5470660668 0.4650485833 -1.3966525142 1.5339834941 0.4665893030 -1.3945895191 1.5305246635 0.4362788531 -0.8465278149 1.5133567852 0.4398968041 -0.8416121743 1.4280879296 0.3143560046 -0.8942736167 1.4337295048 0.3050085557 -0.8960762894 1.6564839151 0.7887174207 -0.9126256885 1.7129638172 0.0366343819 -1.0115448273 1.6924371994 0.0162515134 -0.9459877065 1.6922993676 0.0176031678 -0.9422056738 1.3459849485 0.3676680993 -0.9556248435 1.3417490448 0.4209273042 -1.0053605939 1.3351609855 0.4185338425 -1.0031485976 1.8347897381 -0.0299239258 -1.1042044418 1.6102248216 0.8864876940 -1.2504466289
        </DataArray>
      </Points>
      <Cells>
        <DataArray type="Int32" Name="connectivity" format="ascii">
 0 1 2 3 4 5 6 7 8 9 10 11 12 13 14 15 16 17 18 19 20 21 22 23 24 25 26 27 28 29 30 31 32 33 34 35 36 37 38 39 40 41 42 43 44 45 46 47 48 49 50 51 52 53 54 55 56 57 58 59 60 61 62 63 64 65 66 67 68 69 70 71 72 73 74 75 76 77 78 79 80 81 82 83 84 85 86 87 88 89 90 91 92 93 94 95 96 97 98 99 100 101 102 103 104 105 106 107 108 109 110 111 112 113 114 115 116 117 118 119 120 121 122 123 124 125 126 127 128 129 130 131 132 133 134 135 136 137 138 139 140 141 142 143 144 145 146 147 148 149 150 151 152 153 154 155 156 157 158 159 160 161 162 163 164 165 166 167 168 169 170 171 172 173 174 175 176 177 178 179 180 181 182 183 184 185 186 187 188 189 190 191 192 193 194 195 196 197 198 199 200 201 202 203 204 205 206 207 208 209 210 211 212 213 214 215 216 217 218 219 220 221 222 223 224 225 226 227 228 229 230 231 232 233 234 235 236 237 238 239 240 241 242 243 244 245 246 247 248 249 250 251 252 253 254 255 256 257 258 259 260 261 262 263 264 265 266 267 268 269 270 271 272 273 274 275 276 277 278 279 280 281 282 283 284 285 286 287 288 289 290 291 292 293 294 295 296 297 298 299
        </DataArray>
        <DataArray type="Int32" Name="offsets" format="ascii">
 1 2 3 4 5 6 7 8 9 10 11 12 13 14 15 16 17 18 19 20 21 22 23 24 25 26 27 28 29 30 31 32 33 34 35 36 37 38 39 40 41 42 43 44 45 46 47 48 49 50 51 52 53 54 55 56 57 58 59 60 61 62 63 64 65 66 67 68 69 70 71 72 73 74 75 76 77 78 79 80 81 82 83 84 85 86 87 88 89 90 91 92 93 94 95 96 97 98 99 100 101 102 103 104 105 106 107 108 109 110 111 112 113 114 115 116 117 118 119 120 121 122 123 124 125 126 127 128 129 130 131 132 133 134 135 136 137 138 139 140 141 142 143 144 145 146 147 148 149 150 151 152 153 154 155 156 157 158 159 160 161 162 163 164 165 166 167 168 169 170 171 172 173 174 175 176 177 178 179 180 181 182 183 184 185 186 187 188 189 190 191 192 193 194 195 196 197 198 199 200 201 202 203 204 205 206 207 208 209 210 211 212 213 214 215 216 217 218 219 220 221 222 223 224 225 226 227 228 229 230 231 232 233 234 235 236 237 238 239 240 241 242 243 244 245 246 247 248 249 250 251 252 253 254 255 256 257 258 259 260 261 262 263 264 265 266 267 268 269 270 271 272 273 274 275 276 277 278 279 280 281 282 283 284 285 286 287 288 289 290 291 292 293 294 295 296 297 298 299 300
        </DataArray>
        <DataArray type="UInt8" Name="types" format="ascii">
 1 1 1 1 1 1 1 1 1 1 1 1 1 1 1 1 1 1 1 1 1 1 1 1 1 1 1 1 1 1 1 1 1 1 1 1 1 1 1 1 1 1 1 1 1 1 1 1 1 1 1 1 1 1 1 1 1 1 1 1 1 1 1 1 1 1 1 1 1 1 1 1 1 1 1 1 1 1 1 1 1 1 1 1 1 1 1 1 1 1 1 1 1 1 1 1 1 1 1 1 1 1 1 1 1 1 1 1 1 1 1 1 1 1 1 1 1 1 1 1 1 1 1 1 1 1 1 1 1 1 1 1 1 1 1 1 1 1 1 1 1 1 1 1 1 1 1 1 1 1 1 1 1 1 1 1 1 1 1 1 1 1 1 1 1 1 1 1 1 1 1 1 1 1 1 1 1 1 1 1 1 1 1 1 1 1 1 1 1 1 1 1 1 1 1 1 1 1 1 1 1 1 1 1 1 1 1 1 1 1 1 1 1 1 1 1 1 1 1 1 1 1 1 1 1 1 1 1 1 1 1 1 1 1 1 1 1 1 1 1 1 1 1 1 1 1 1 1 1 1 1 1 1 1 1 1 1 1 1 1 1 1 1 1 1 1 1 1 1 1 1 1 1 1 1 1 1 1 1 1 1 1 1 1 1 1 1 1 1 1 1 1 1 1 1 1 1 1 1 1
        </DataArray>
      </Cells>
      <PointData Scalars="overlap">
        <DataArray type="Float32" Name="overlap" format="ascii">
 0.0001287483 0.0001226596 0.0000179890 0.0001265006 0.0000508788 0.0000453262 0.0000893546 0.0000531014 0.0001358624 0.0000533552 0.0002458496 0.0003084928 0.0000508873 0.0000299289 0.0003484080 0.0002186507 0.0000809230 0.0000688582 0.0003497737 0.0002307378 0.0003799637 0.0001185561 0.0002799390 0.0002268557 0.0001155366 0.0004568143 0.0000616689 0.0000739539 0.0000984166 0.0000085989 0.0001120381 0.0003394179 0.0000035394 0.0000379358 0.0000688191 0.0000955871 0.0000786061 0.0001247853 0.0002517029 0.0001969986 0.0005290342 0.0000194192 0.0002610387 0.0000468503 0.0001223466 0.0001682165 0.0002030568 0.0003689036 0.0001462337 0.0000108020 0.0000604477 0.0002473824 0.0000413766 0.0000151815 0.0000530274 0.0000015075 0.0000009485 0.0000562388 0.0003351254 0.0000881615 0.0000738291 0.0000759595 0.0000448711 0.0002456527 0.0000574283 0.0001690442 0.0000421211 0.0002001102 0.0000714619 0.0001105746 0.0001962643 0.0000433395 0.0001052797 0.0000912594 0.0000576717 0.0000333207 0.0000391972 0.0000506470 0.0000096440 0.0000429356 0.0000049827 0.0000101170 0.0000164343 0.0000094021 0.0001150047 0.0000860930 0.0000360239 0.0000582546 0.0000067813 0.0000543526 0.0000400275 0.0000784081 0.0000145612 0.0000381178 0.0000935617 0.0000019293 0.0001099721 0.0001243517 0.0001098761 0.0000587567 0.0001289689 0.0000438913 0.0000042227 0.0000469103 0.0000220180 0.0000604604 0.0000062744 0.0000095845 0.0000940436 0.0000477829 0.0000205470 0.0001288052 0.0000126761 0.0000175506 0.0001213455 0.0000295695 0.0000385939 0.0001237420 0.0001731179 0.0000339480 0.0000192253 0.0002029330 0.0000043999 0.0000023817 0.0000331227 0.0003356442 0.0000634904 0.0001949479 0.0003452281 0.0002634316 0.0001804058 0.0002302907 0.0005511575 0.0003275818 0.0001800355 0.0006231323 0.0004673534 0.0001863512 0.0002618923 0.0000028675 0.0000468154 0.0000648194 0.0000732664 0.0002482882 0.0003600368 0.0000778684 0.0002807290 0.0003168460 0.0000202979 0.0000810780 0.0002008153 0.0000739527 0.0000126098 0.0000370436 0.0000227062 0.0001812348 0.0002787186 0.0001790156 0.0001540862 0.0003713595 0.0001529465 0.0005623979 0.0006812577 0.0006171544 0.0003783213 0.0005011497 0.0006937044 0.0002343386 0.0003069112 0.0004814395 0.0001923019 0.0000658840 0.0000586429 0.0000270066 0.0000655691 0.0000822418 0.0000046827 0.0000832783 0.0000142992 0.0000025567 0.0000058440 0.0000120191 0.0000134462 0.0000065305 0.0000121420 0.0000647220 0.0000324681 0.0000207710 0.0000334965 0.0000327124 0.0000052071 0.0000210294 0.0001236855 0.0000821284 0.0000663919 0.0000110763 0.0000239445 0.0000764843 0.0000297202 0.0002314881 0.0000552650 0.0000632130 0.0000171235 0.0001696637 0.0001300980 0.0001609401 0.0000744189 0.0000497825 0.0000611721 0.0000665965 0.0002110535 0.0001428745 0.0000368053 0.0000633083 0.0000352372 0.0000119904 0.0000379841 0.0000153413 0.0000080707 0.0000219603 0.0000183200 0.0000088732 0.0001357709 0.0000622982 0.0001040035 0.0001490716 0.0003109780 0.0000661189 0.0000075322 0.0000311451 0.0000016715 0.0000206458 0.0000644378 0.0001114776 0.0000721531 0.0000631604 0.0000027729 0.0000017537 0.0000329856 0.0000298300 0.0000293766 0.0000139935 0.0000416582 0.0001134077 0.0000516186 0.0000409285 0.0001275848 0.0000982958 0.0000186096 0.0001974631 0.0001473954 0.0000245156 0.0000058421 0.0000109666 0.0000056589 0.0000494688 0.0001262997 0.0000873814 0.0000337112 0.0000092864 0.0000140189 0.0000221482 0.0000555378 0.0000720568 0.0000137852 0.0000553694 0.0000364559 0.0000108338 0.0000339989 0.0000236931 0.0000190978 0.0000525778 0.0000172471 0.0000070937 0.0000336178 0.0000245236 0.0000234360 0.0000052340 0.0000171769 0.0000376158 0.0001112715 0.0000608311 0.0000135750 0.0000325813 0.0000128357 0.0000127133 0.0000117014 0.0000183335 0.0000081113 0.0000429391 0.0000478538 0.0000201695 0.0000349281 0.0000659515 0.0000071547 0.0000137163 0.0000250825 0.0000205476 0.0000764155 0.0000465661
        </DataArray>
        <DataArray type="Float32" Name="contact normal" NumberOfComponents="3" format="ascii">