<?xml version="1.0"?>
<VTKFile type="UnstructuredGrid" version="0.1" byte_order="LittleEndian">
  <UnstructuredGrid>
    <FieldData>
      <DataArray type="Float32" Name="TIME"  NumberOfTuples="1" format="ascii"> 2.0000000000 </DataArray>
      <DataArray type="Int32"   Name="STEP"  NumberOfTuples="1" format="ascii"> 200000 </DataArray>
    </FieldData>
    <Piece NumberOfPoints="257" NumberOfCells="257">
      <Points>
        <DataArray type="Float32" NumberOfComponents="3" format="ascii">
 6.2199870767 0.1604451762 -6.2908570485 6.3429010672 0.1019014739 -6.2691739954 6.2649615834 0.0980736722 -6.4028384558 6.3533902322 0.1008074494 -6.2868616221 6.3929063024 0.0836492540 -6.4381332103 6.3906294840 0.3178985386 -6.2666697506 6.4019780495 0.3135489553 -6.2750099246 6.4015477770 0.4036528107 -6.2822657541 6.4922532157 0.1628542014 -6.4875833264 6.4997124310 0.1699395701 -6.4882665415 6.4576050759 0.4259563067 -6.3779992285 6.4636135206 0.4277702717 -6.3921663400 6.5347450254 0.2293409478 -6.5716284466 6.4300374567 0.3686096651 -6.5537600740 6.4395538899 0.3670678204 -6.5639816338 6.4581698161 0.3842327417 -6.5736289981 6.5833978006 0.3769388123 -6.4422012528 6.5940888717 0.3700210630 -6.4517607133 6.6078185953 0.3645584326 -6.5484471268 6.8776487327 0.2526761335 -6.1172415815 6.8208035703 0.3117739573 -6.2025829213 6.8207777216 0.3077450686 -6.2113606966 6.9021725792 0.5125683113 -6.2745425236 6.9023887747 0.5048321884 -6.2953947760 6.9001118133 0.2857049289 -6.3357827054 6.9003588446 0.2995914080 -6.3432459023 6.8523015193 0.4670084267 -6.3989672550 6.8462673770 0.4477703164 -6.3847340414 6.0536589776 0.7265377340 -6.0979042588 6.0637828112 0.7283372815 -6.0964265435 6.0673052331 0.7195150606 -6.1027765643 5.9990306029 0.8100751927 -5.9380795505 5.9972319436 0.8108665080 -5.9263824726 6.0336947515 0.6420864929 -6.0135599893 6.0235686781 0.7036869387 -5.8823941583 6.0311169958 0.6982617379 -5.8857458055 6.4379445195 0.7097511782 -6.2042007284 6.5263003703 0.7178233569 -6.2776301209 6.4310037390 0.7045443351 -6.3231238353 6.4346936498 0.7087232809 -6.3265741628 6.4293437210 0.7104955779 -6.3294792082 6.2959928446 0.7193517697 -6.2657645171 6.5274517603 0.8257828046 -6.3271977943 6.3692366807 0.8042024266 -6.2376316085 6.3637866410 0.8053035138 -6.2426725357 6.3719348731 0.8097283921 -6.2429377139 6.3669793912 0.8110994342 -6.2483224241 6.3625082552 0.8130612414 -6.2544038841 6.3148837192 0.3738130399 -5.8190525391 6.1464880326 0.5622970267 -5.9038550504 6.3876164886 0.4508801721 -5.8728756678 6.3948527977 0.4512065360 -5.8829429271 6.3810052081 0.3667266263 -5.9276352465 6.3991005745 0.4672160389 -5.8816873995 6.4051786972 0.4664725960 -5.8905443613 6.2914008211 0.3784762416 -6.0326751237 6.2546379472 0.6570445499 -5.7640293305 6.2447714922 0.6997735772 -5.9760161879 6.4684795467 0.4535756636 -6.0162187765 6.4759824299 0.4650567756 -6.0168511688 6.3127546978 0.7876276041 -5.8655160877 6.4543867028 0.7475978859 -5.9123565705 6.4649411872 0.7663544937 -5.9235124148 6.3743856429 0.8418371009 -6.0714636641 6.5926819706 0.7070731131 -6.0517947209 6.7679159138 0.2895004939 -6.1997181951 6.7733700701 0.2878480981 -6.2122409271 6.7544899688 0.1399368271 -6.2121054178 6.4707182490 0.0352416883 -6.3963679038 6.5657934718 0.2080485047 -6.3581747268 6.6454422324 0.3448132286 -6.3350157226 6.6560157108 0.3526877808 -6.3333112500 6.4903536441 0.2663710134 -6.2233077104 6.5677347661 0.1675925766 -6.1181854510 6.4583081241 0.2022279941 -6.1432761020 6.0546198966 0.3676006383 -6.1143552348 6.0499407083 0.3618210814 -6.1040567341 6.0502471341 0.3836076813 -5.9844474683 6.0559930481 0.3927067314 -5.9787476193 6.0530202982 0.4007137044 -5.9698621025 6.0585702280 0.4077880911 -5.9660245637 6.0556197438 0.4145371220 -5.9582689519 6.0525582640 0.4212412271 -5.9505575218 6.0581231543 0.4270081549 -5.9479087407 6.0551356557 0.4338659312 -5.9400541096 6.0117892274 0.5244664279 -6.0095480008 6.0161235430 0.5297326110 -6.0111114000 6.0739155299 0.5641734239 -5.8825840562 6.0689427964 0.5731378794 -5.8904318323 6.1467070173 0.2998041697 -5.9432425378 6.2049917140 0.2229890229 -6.0453918978 6.2011759480 0.2141471661 -6.0425726127 6.2104174127 0.2239410772 -6.0491322860 6.1956803569 0.2078693753 -6.0386596587 6.2070030090 0.2137756167 -6.0465461158 6.2153611872 0.2266808932 -6.0525823331 6.2200409712 0.2313677945 -6.0558967565 6.2246758207 0.2384353529 -6.0592311125 6.2295311705 0.2487298893 -6.0627716671 6.0953678504 0.2206176333 -5.8978755059 6.2360925599 0.2473995757 -6.0672466350 6.2931015390 0.2408764908 -6.0041721223 6.2991899660 0.2490775501 -6.0089786122 6.3070336685 0.2463633386 -6.0132743532 6.1275503089 0.1472253209 -5.8987027322 6.0839176768 0.0721952333 -5.9276914938 6.0971772003 0.0497335186 -5.9388906365 6.1763942435 -0.0314665687 -5.9338087694 6.3001482213 0.0477973400 -5.9962945805 6.3116999387 0.0678116969 -6.0043335832 6.3170139906 0.0781215925 -6.0080305783 6.3234855144 0.0833275559 -6.0125901923 6.7898429516 0.1600129416 -6.3746421675 6.7456479827 0.0800095937 -6.3814497761 6.8291251247 0.0948010044 -6.1944700068 6.4061912629 0.2867365705 -5.9353710312 6.6777742418 0.6698597029 -6.0729916721 6.6855308290 0.6836537729 -6.0676750503 6.6205782362 0.6021559575 -6.2266910286 6.7163495996 0.6611041550 -6.2126009555 6.7132991106 0.6640727742 -6.2181670727 6.7165028366 0.6703624303 -6.2160927333 6.6386198789 0.7340294474 -6.2231648566 6.3949412332 0.4703824226 -6.2513469772 6.4685792554 0.4768918526 -6.2557090896 6.4728548202 0.4959365794 -6.2499868189 6.4813731072 0.4893233648 -6.2606056780 6.3673841789 0.5324503368 -6.3925427091 6.5507859780 0.6290156963 -6.3332958257 6.5589320089 0.6322265560 -6.3398441832 6.6063203174 0.4544197324 -6.4292288109 6.6134680496 0.4651655658 -6.4317359147 6.5673681296 0.6356351639 -6.3466753229 6.6203793751 0.4756286964 -6.4343168367 6.4683546348 0.7343713605 -6.4313998502 6.5764730838 0.6394894394 -6.3541474163 6.4688100215 0.7210451446 -6.4412477889 6.5868085142 0.6441586636 -6.3627886484 6.5330765751 0.7487349890 -6.4295628865 6.5361230563 0.6221893148 -6.5510996648 6.6368637058 0.5541889513 -6.5266890455 6.5485655205 0.6357791997 -6.5631236507 6.6962615514 0.6653419726 -6.4616776041 6.6605426885 0.7145606449 -6.4678022601 6.2698603942 0.5549620286 -6.3731359766 6.4518545039 0.0900016634 -6.0395305539 6.4526081559 -0.0073756054 -5.9784772536 6.2804620612 0.0813053470 -5.9000821991 6.3632905045 0.0271895502 -5.8940587967 6.3560629081 0.0299873732 -5.8892174353 6.2870646741 -0.0212208750 -5.8675673912 6.2776629460 -0.0132797530 -5.8762561631 6.9306642339 0.4116325111 -6.2858577788 6.1715179595 0.0550056207 -6.1715608385 6.1782526755 0.0198020741 -6.2074863107 6.1860353688 0.1121260635 -6.2350081710 6.1894735473 0.1151996900 -6.2339469043 6.1929967597 0.1130429261 -6.2349865942 6.1969370147 0.1162747117 -6.2339291287 6.2157350817 0.1395660176 -6.1672838625 6.0198396244 0.8335359213 -5.8473271012 6.5031518627 0.5646480846 -6.5917161027 6.4954768924 0.5686244206 -6.5868228000 6.6089204135 0.0521635685 -6.4230922220 6.5871801132 0.0609289109 -6.3783948434 6.5971294630 0.0658416477 -6.3782684526 6.5907041065 0.0671536207 -6.3737375403 6.6791691030 0.1033395690 -6.4380096670 6.6875133942 0.1168793052 -6.4371530964 6.5474912975 0.1716788832 -6.4605575370 6.5522519114 0.1756702205 -6.4610532800 6.5054139980 0.0945237002 -5.9330570196 6.7842810196 0.5889982987 -6.4309388544 6.7535555865 0.5812185838 -6.3393567785 6.7519463588 0.4566867587 -6.4056107072 6.7513038757 0.4520002049 -6.4101578364 6.7476390074 0.4493364369 -6.4053842445 6.7030374502 0.3736383161 -6.4792744065 6.7005132191 0.3662403075 -6.4705910510 6.4094454980 0.0753137051 -5.8259819073 6.1158145425 0.7639676844 -6.2214107607 6.6789883944 0.6259208475 -6.3113728726 6.5867080998 0.5700268924 -6.2458746920 6.5793140719 0.5737009686 -6.2394848011 6.1216372792 0.8115864843 -5.8626921091 6.1288117846 0.8108199739 -5.8592967234 6.0738246627 0.2077382772 -6.1382033856 6.1517758878 0.2127072713 -6.2384284783 6.2214270449 0.0729362066 -5.8530687920 6.2550334866 0.1137515078 -5.8744237674 6.3357951618 0.8142254000 -5.7912761282 6.1930283909 0.8499385983 -5.9076784088 6.6103501597 0.1138977028 -6.0634081961 6.4990940960 0.1142199791 -6.0725577292 6.2667148269 0.7725479831 -6.3158418103 6.2148173350 0.8911833898 -6.3086234750 6.5574187530 0.7307931273 -5.9461871009 6.5535068188 0.7303280755 -5.8690705220 6.7382021203 0.1312344799 -6.5487786537 6.3778657693 0.7677351731 -5.7892163351 6.2159549049 0.7400036681 -6.1265644571 6.2744376278 0.8648712533 -6.0944615854 6.2828254699 0.8665067595 -6.1067412065 6.2548355347 0.8423790384 -6.1225366686 6.0056095248 0.1336528470 -6.0565525243 6.0722964932 0.0637290109 -6.1349388761 6.6102677456 0.8769194128 -6.3369736767 6.7032494342 0.8671955722 -6.2889778856 6.6027273666 0.8794210702 -6.3278502432 6.7005108564 0.8456921494 -6.2877723084 6.7486988151 0.6336386962 -6.2597748833 6.7512981888 0.6376550428 -6.2621499949 6.7475737895 0.6399397738 -6.2647310148 6.7502135968 0.6447312721 -6.2676551494 6.7465291661 0.6477440233 -6.2707862136 6.7718620909 0.3548092913 -6.3950956882 6.6148855549 0.0283956386 -6.3094434421 6.6163889791 0.0231710782 -6.3162902394 6.7054087296 0.0185303173 -6.4759725626 6.7190683840 0.0044104740 -6.4292528220 6.7175777193 0.0071361748 -6.4195724994 6.1874251354 0.0905065474 -6.2934445239 6.2424210172 0.2653185581 -6.2529300318 6.6210646593 0.8374095369 -6.4506016959 6.6209673422 0.8459921412 -6.4498750374 6.5431575950 0.8701936112 -6.4223403894 6.0322641807 0.1191209195 -6.0384244578 6.4494235290 0.4225270090 -5.8027196163 6.2898143338 0.5330375186 -5.6812595722 6.5467271899 0.1013181491 -6.6609449701 6.5544841803 0.1119668233 -6.6530755798 6.5562944866 0.1169508110 -6.6477465798 6.5586410622 0.1209409264 -6.6442745750 6.5616347474 0.1243118563 -6.6422440433 6.5654901222 0.1272892720 -6.6415257793 6.6026289983 0.0115456738 -6.2416089045 6.5921823682 0.0093740016 -6.2346248200 6.6228740014 0.0180720916 -6.2523404601 6.6071324507 0.2799634262 -6.6227256973 7.0025634389 0.3112993011 -6.2208399520 6.1309590899 0.4298961276 -6.2156576498 6.0547795454 0.5583142512 -6.0789011276 6.0463409476 0.5456771299 -6.0809411772 6.1957642672 0.5928005803 -6.1143682709 6.2725273229 0.4413731182 -6.3267701274 6.2933436266 0.3745529048 -5.7745657537 6.2100559909 0.2483280306 -5.8287599507 6.2551908602 0.2271171444 -5.7758967087 6.2581036745 0.2227162467 -5.7806399072 6.2159631117 0.2394792621 -5.8317976320 6.4110508900 0.7352678505 -5.8313419121 6.4960645920 -0.0032181538 -5.9925968410 6.1080743070 0.3575318182 -5.9229354035 6.1018584082 0.3546081826 -5.9203205878 6.6117537458 -0.0557476633 -6.1007502093 6.3344114260 0.8604597884 -6.1558480091 6.3277907366 0.8542422765 -6.1550003537
        </DataArray>
      </Points>
      <Cells>
        <DataArray type="Int32" Name="connectivity" format="ascii">
 0 1 2 3 4 5 6 7 8 9 10 11 12 13 14 15 16 17 18 19 20 21 22 23 24 25 26 27 28 29 30 31 32 33 34 35 36 37 38 39 40 41 42 43 44 45 46 47 48 49 50 51 52 53 54 55 56 57 58 59 60 61 62 63 64 65 66 67 68 69 70 71 72 73 74 75 76 77 78 79 80 81 82 83 84 85 86 87 88 89 90 91 92 93 94 95 96 97 98 99 100 101 102 103 104 105 106 107 108 109 110 111 112 113 114 115 116 117 118 119 120 121 122 123 124 125 126 127 128 129 130 131 132 133 134 135 136 137 138 139 140 141 142 143 144 145 146 147 148 149 150 151 152 153 154 155 156 157 158 159 160 161 162 163 164 165 166 167 168 169 170 171 172 173 174 175 176 177 178 179 180 181 182 183 184 185 186 187 188 189 190 191 192 193 194 195 196 197 198 199 200 201 202 203 204 205 206 207 208 209 210 211 212 213 214 215 216 217 218 219 220 221 222 223 224 225 226 227 228 229 230 231 232 233 234 235 236 237 238 239 240 241 242 243 244 245 246 247 248 249 250 251 252 253 254 255 256
        </DataArray>
        <DataArray type="Int32" Name="offsets" format="ascii">
 1 2 3 4 5 6 7 8 9 10 11 12 13 14 15 16 17 18 19 20 21 22 23 24 25 26 27 28 29 30 31 32 33 34 35 36 37 38 39 40 41 42 43 44 45 46 47 48 49 50 51 52 53 54 55 56 57 58 59 60 61 62 63 64 65 66 67 68 69 70 71 72 73 74 75 76 77 78 79 80 81 82 83 84 85 86 87 88 89 90 91 92 93 94 95 96 97 98 99 100 101 102 103 104 105 106 107 108 109 110 111 112 113 114 115 116 117 118 119 120 121 122 123 124 125 126 127 128 129 130 131 132 133 134 135 136 137 138 139 140 141 142 143 144 145 146 147 148 149 150 151 152 153 154 155 156 157 158 159 160 161 162 163 164 165 166 167 168 169 170 171 172 173 174 175 176 177 178 179 180 181 182 183 184 185 186 187 188 189 190 191 192 193 194 195 196 197 198 199 200 201 202 203 204 205 206 207 208 209 210 211 212 213 214 215 216 217 218 219 220 221 222 223 224 225 226 227 228 229 230 231 232 233 234 235 236 237 238 239 240 241 242 243 244 245 246 247 248 249 250 251 252 253 254 255 256 257
        </DataArray>
        <DataArray type="UInt8" Name="types" format="ascii">
 1 1 1 1 1 1 1 1 1 1 1 1 1 1 1 1 1 1 1 1 1 1 1 1 1 1 1 1 1 1 1 1 1 1 1 1 1 1 1 1 1 1 1 1 1 1 1 1 1 1 1 1 1 1 1 1 1 1 1 1 1 1 1 1 1 1 1 1 1 1 1 1 1 1 1 1 1 1 1 1 1 1 1 1 1 1 1 1 1 1 1 1 1 1 1 1 1 1 1 1 1 1 1 1 1 1 1 1 1 1 1 1 1 1 1 1 1 1 1 1 1 1 1 1 1 1 1 1 1 1 1 1 1 1 1 1 1 1 1 1 1 1 1 1 1 1 1 1 1 1 1 1 1 1 1 1 1 1 1 1 1 1 1 1 1 1 1 1 1 1 1 1 1 1 1 1 1 1 1 1 1 1 1 1 1 1 1 1 1 1 1 1 1 1 1 1 1 1 1 1 1 1 1 1 1 1 1 1 1 1 1 1 1 1 1 1 1 1 1 1 1 1 1 1 1 1 1 1 1 1 1 1 1 1 1 1 1 1 1 1 1 1 1 1 1 1 1 1 1 1 1 1 1 1 1 1 1
        </DataArray>
      </Cells>
      <PointData Scalars="overlap">
        <DataArray type="Float32" Name="overlap" format="ascii">
 0.0001391209 0.0000598266 0.0001207580 0.0001250843 0.0000521207 0.0000813095 0.0000448313 0.0001343421 0.0000547173 0.0002482726 0.0003230130 0.0000167167 0.0000004157 0.0000580743 0.0000304221 0.0003361234 0.0000118893 0.0002325524 0.0001035529 0.0001267233 0.0003429356 0.0001965530 0.0002916029 0.0002157527 0.0002856088 0.0002205174 0.0001112574 0.0004470518 0.0001565660 0.0000721551 0.0000462679 0.0000312635 0.0001396437 0.0001627300 0.0001049006 0.0001042886 0.0000686034 0.0002539511 0.0002554014 0.0005670356 0.0000713770 0.0001915438 0.0000626358 0.0001344520 0.0001850601 0.0002184535 0.0003888465 0.0001710577 0.0000630039 0.0001863642 0.0000512749 0.0000280957 0.0000071115 0.0000154332 0.0000965090 0.0002908862 0.0001379051 0.0000393329 0.0001309327 0.0000263811 0.0000027402 0.0000688276 0.0000425782 0.0002090348 0.0000130090 0.0000136915 0.0001129459 0.0000151729 0.0000190684 0.0001595043 0.0000425521 0.0000020249 0.0001381120 0.0000838027 0.0001133577 0.0000817753 0.0000538249 0.0000366951 0.0000448107 0.0000521890 0.0000144319 0.0000433276 0.0000008712 0.0000096222 0.0000114485 0.0001078338 0.0000773282 0.0000491583 0.0000487181 0.0000193598 0.0000381014 0.0000248211 0.0000618228 0.0000002181 0.0000227005 0.0000764841 0.0000922185 0.0001056887 0.0000899913 0.0000484075 0.0001088957 0.0000057018 0.0000480729 0.0000039060 0.0000470810 0.0000207814 0.0000579287 0.0000309806 0.0000157761 0.0000995993 0.0000538670 0.0000248678 0.0000104179 0.0000078915 0.0000930877 0.0000072584 0.0000731517 0.0000713336 0.0000417091 0.0000486688 0.0001845269 0.0000255735 0.0002560539 0.0001182769 0.0001401119 0.0001207486 0.0000561392 0.0000577408 0.0000042119 0.0000191112 0.0000380474 0.0001678741 0.0000304160 0.0001062337 0.0001117133 0.0000410023 0.0000698655 0.0000425746 0.0000716643 0.0000466221 0.0000970220 0.0002684395 0.0001306888 0.0000067721 0.0000665563 0.0000239346 0.0000276054 0.0000932868 0.0000012228 0.0000433360 0.0000728448 0.0000026494 0.0000314538 0.0000270003 0.0000038440 0.0000053643 0.0000205755 0.0000402732 0.0000056413 0.0000150585 0.0000365090 0.0001031004 0.0000605619 0.0000584238 0.0000186216 0.0000280108 0.0000845394 0.0000346903 0.0000017127 0.0002081043 0.0000318134 0.0001945328 0.0000470888 0.0000330739 0.0001361322 0.0001050088 0.0001365795 0.0000484523 0.0000673586 0.0000028351 0.0001337024 0.0000432245 0.0000187593 0.0000263881 0.0000476325 0.0000547861 0.0001910649 0.0001167397 0.0000203534 0.0000408440 0.0000249486 0.0000176808 0.0000765375 0.0000277384 0.0001140005 0.0000132323 0.0000395426 0.0000529524 0.0000213596 0.0000042472 0.0000937901 0.0000486212 0.0000383230 0.0001320319 0.0000492025 0.0000917255 0.0001195985 0.0000102320 0.0000036583 0.0000544883 0.0000046877 0.0000011414 0.0000204905 0.0000222561 0.0000001733 0.0000415098 0.0000832267 0.0000323709 0.0000174087 0.0000217391 0.0000425315 0.0000001425 0.0000203957 0.0000374335 0.0000298080 0.0000103327 0.0000055042 0.0000568652 0.0000204179 0.0000463483 0.0000766211 0.0000400232 0.0000183885 0.0000157759 0.0000264638 0.0000280950 0.0000145350 0.0000222154 0.0000390770 0.0000079658 0.0000187923 0.0000582427 0.0000117305 0.0000448814 0.0000335303 0.0000067081 0.0000282085 0.0000331202 0.0000118023 0.0000006538 0.0000043743 0.0000393338 0.0000177459 0.0000207203 0.0000722323 0.0000117512 0.0000591781
        </DataArray>
        <DataArray type="Float32" Name="contact normal" NumberOfComponents="3" format="ascii">
 0.5689474482 -0.0665475331 -0.8196769041 -0.5154537408 0.7858501083 -0.3416826721 0.3947709908 0.8763721338 0.2759125729 -0.4887989935 0.7789782723 -0.3927701558 -0.6221074368 0.7531369531 -0.2139323887 -0.6605261562 0.0538706745 -0.7488679105 -0.5573299110 0.0030631069 -0.8302854857 0.2545395992 -0.6781022185 -0.6894831207 -0.7577370045 0.6472583977 -0.0830132436 -0.7127353741 0.6939363566 -0.1022771696 -0.2989605106 -0.9342757252 -0.1942974072 -0.3036907926 -0.8331246976 -0.4622500846 -0.4122138122 0.3462475670 0.8427291353 0.5639445172 -0.5407682561 0.6241284120 0.5477061994 -0.5658003480 0.6163504566 0.6040515475 -0.4758570862 0.6392822236 -0.7442681248 0.1514237937 -0.6504888877 -0.7174167443 0.0000119805 -0.6966442527 -0.1488513635 -0.2036474564 0.9676626401 -0.9319119404 0.3091117493 -0.1897104684 0.9411537972 -0.1912424355 0.2786680119 0.9650499829 -0.1751822965 0.1949094493 -0.9796905989 -0.1986904973 -0.0269891960 -0.9744621669 -0.2171668018 -0.0571144948 -0.9582715884 0.1326364287 0.2532254740 -0.9279759212 0.3697329590 0.0464567411 0.9371944371 0.0382926807 0.3466990880 0.9141060351 -0.0837229886 0.3967374671 -0.0958748987 -0.6204252585 0.7783832619 -0.0191029204 -0.5911944874 0.8063027698 -0.0554841177 -0.6782129209 0.7327678668 0.1910680808 -0.9773983017 0.0904740200 0.1911004891 -0.9773911900 0.0904824004 0.3560752061 0.9344559132 -0.0016105541 0.1372662856 0.6398329583 -0.7561559047 0.1700743952 0.6064910679 -0.7766873790 -0.5641117767 -0.0715083509 -0.8225961702 -0.7731339447 0.5988095131 0.2090240911 -0.4677620306 0.5637779298 0.6807004691 -0.4052975391 0.5843503784 0.7030423458 -0.4428612475 0.5919503753 0.6734008232 0.8171657014 0.1839074963 0.5462767150 0.1735713240 -0.7570256622 0.6299088365 0.3288119519 -0.7815979881 -0.5300823382 0.3350751797 -0.7752563867 -0.5354457571 0.4280088267 -0.7131591911 -0.5551688144 0.4113141983 -0.7252816647 -0.5520753002 0.3997018496 -0.7334542620 -0.5498029438 0.0466024232 0.8614440987 -0.5057096786 0.7338096661 -0.4350128076 0.5218114900 -0.7912216216 0.2660621332 -0.5506171872 -0.7862077902 0.2461123685 -0.5668386126 -0.6246927690 0.7094012700 -0.3263568330 -0.7862815012 0.3105443019 -0.5341569408 -0.7853659398 0.2773934894 -0.5534014751 0.3909971001 0.4904817311 0.7788125186 -0.1993789161 -0.3668276967 -0.9086723770 0.4809157956 -0.8755009153 -0.0470971851 -0.9141765628 0.3268402559 -0.2397011871 -0.7903433557 0.5989612954 0.1288516461 0.1908259916 -0.5216372984 -0.8315527463 -0.6285598118 -0.1596133195 -0.7612070357 -0.4939856314 -0.1400555217 -0.8581157537 0.4538858741 -0.7616515995 0.4624656250 -0.8121055268 -0.0621447015 -0.5801919074 0.8086681816 -0.3928387755 0.4378738043 0.8132587856 -0.3871878411 0.4343912100 -0.6847439079 0.7266799951 -0.0553350274 0.0976548969 -0.5026461221 0.8589589030 0.1386847262 0.5751296277 0.8062210975 -0.2931272708 -0.8323172753 0.4704512264 0.7589502837 -0.4041034877 0.5105828416 0.7560464081 -0.2988828459 0.5822910554 -0.3710067720 0.6386492354 -0.6741521559 0.8426525147 0.4963103897 -0.2088366266 0.0138391432 0.9070336188 0.4208307171 -0.1456932757 0.6271959928 0.7651134922 -0.3438446737 0.6407872841 -0.6864127744 -0.2949082518 0.6457837812 -0.7042673008 -0.3438599639 0.6407854311 -0.6864068447 -0.3437668014 0.6407967198 -0.6864429693 -0.3438641244 0.6407849268 -0.6864052313 -0.3439624889 0.6407729999 -0.6863670802 -0.3438641561 0.6407849230 -0.6864052190 -0.3439618520 0.6407730774 -0.6863673270 0.7299895365 -0.5232522011 0.4396844445 0.7316667854 -0.5166275412 0.4447018088 -0.2901147129 -0.9117132314 -0.2908821704 0.2211421530 -0.4983697323 -0.8382862030 -0.2888577602 -0.2276317789 -0.9299166455 0.5615785609 0.0214489219 0.8271453704 0.5619001838 0.0210716324 0.8269366178 0.5620365586 0.0209119266 0.8268479898 0.5618543898 0.0211253601 0.8269663620 0.5624930611 0.0203756233 0.8265509000 0.5623030407 0.0205990458 0.8266746457 0.5623941498 0.0205015531 0.8266150898 0.5623798318 0.0207357693 0.8266189888 0.5619663251 0.0212794385 0.8268863495 -0.5749012754 -0.2075873153 -0.7914518495 0.5632105867 0.0218855127 0.8260235223 -0.5257193849 -0.1024042443 -0.8444717278 -0.5295006563 -0.0957292205 -0.8428908419 -0.5129995558 -0.1221152739 -0.8496583523 -0.2528034419 -0.2558942658 -0.9330640624 0.8584995811 0.5127219245 0.0097312618 0.8747001759 0.4662339643 -0.1323838844 -0.2975650775 0.4592627356 -0.8369783536 -0.5618772451 -0.0157302330 -0.8270710497 -0.5626453006 -0.0121440170 -0.8266092115 -0.5829772972 0.0144073068 -0.8123606960 -0.5629896413 -0.0112073799 -0.8263879588 0.6376596254 -0.7411506961 0.2099663017 0.8373007431 0.1297124324 0.5311328935 -0.6808878005 0.4946036517 -0.5401472307 -0.2985225040 -0.9538172181 0.0334219837 0.1991333247 0.2211653218 -0.9546893837 0.2488923324 0.2884047133 -0.9245946832 0.6767652454 0.7316091117 -0.0820786834 -0.7769094865 0.2410925217 0.5816236289 -0.7789934558 0.2392962100 0.5795744298 -0.7744014841 0.2440248823 0.5837415508 0.6163525201 -0.6846693308 0.3890211800 0.1407275860 0.9387029610 -0.3146942921 -0.7991249722 -0.4693763488 -0.3756129949 -0.4183636150 0.6214009541 -0.6624445183 -0.3815385984 0.5849147008 -0.7157535125 0.7829360474 -0.1238514672 0.6096490464 -0.4200708042 -0.4923323370 -0.7623315482 -0.4202796199 -0.4922499276 -0.7622696700 -0.7764908467 0.3960585013 -0.4901016512 -0.7764957691 0.3960673433 -0.4900867068 -0.4204088346 -0.4920595101 -0.7623213563 -0.7765001291 0.3960751750 -0.4900734693 0.8235185733 -0.0617873321 0.5639144306 -0.4207393533 -0.4918021736 -0.7623050692 0.2775589574 -0.9527790846 0.1231788991 -0.4216889879 -0.4919725958 -0.7616701139 0.1468829249 -0.8865139645 0.4387691843 0.5795569454 0.0564947623 0.8129711489 -0.6968083376 0.3915299464 0.6009679207 0.6639290642 0.2309185434 0.7112487779 -0.9000830268 0.3988270441 0.1754637676 -0.4703186111 -0.7092399677 -0.5251467150 -0.6949195615 -0.1563350103 0.7018875748 -0.4395894391 0.3104607920 0.8428376010 -0.8993787151 0.4289062398 -0.0846012073 -0.0393081090 -0.4186047021 -0.9073174615 -0.4814337973 -0.0014849360 -0.8764811999 -0.5359683754 0.0438955741 -0.8430961269 0.6547660258 0.3344632861 -0.6778021552 0.6696983498 0.1120062525 -0.7341380794 -0.8616082675 0.4879985071 0.1396017570 -0.1186481401 0.1117461477 -0.9866283076 0.2369579049 0.9545628351 0.1807228408 0.0168906037 -0.3627418154 0.9317365952 0.0358160084 -0.3602555321 0.9321658464 0.0450236815 -0.3684068214 0.9285737892 0.0490626131 -0.3721494846 0.9268751918 -0.2066004143 -0.3547001153 -0.9118684647 -0.4344041308 0.4006193623 -0.8067200119 0.5714462210 0.7743107255 0.2718310446 0.5220721117 0.8209454999 0.2312773148 0.0410407321 0.9064576231 0.4202977942 -0.4161195042 0.6587295155 -0.6268332982 -0.3528868743 0.6896305469 -0.6323611016 -0.3770559690 0.6794306114 -0.6294464557 -0.8286825382 0.4836559358 -0.2817129507 -0.8127643653 0.5218517985 -0.2590073103 0.4797777295 -0.6301458622 0.6105157841 0.4817050151 -0.6209239528 0.6183960893 -0.7662415463 0.6415342046 -0.0361629233 -0.5670582066 -0.7864541156 0.2448160828 0.1542496556 -0.5871339590 -0.7946576357 -0.7566006481 0.6538610596 0.0046015275 -0.7722816458 0.4179761946 -0.4784108698 -0.8535311047 0.3116693863 -0.4175486163 -0.7025571484 0.6508197972 0.2878316258 -0.7101367128 0.6267912606 0.3206845252 0.1621233403 -0.7275301568 -0.6666452531 -0.3111917258 -0.3196539812 0.8949754422 -0.8339984230 0.4105397003 -0.3686513053 -0.3262388462 0.5660189482 -0.7570936306 -0.3644191055 0.6015491013 -0.7108708703 -0.3945739746 0.2449607025 0.8856103166 -0.3937850812 0.2393442604 0.8874951464 0.6420892835 0.7655015784 -0.0415774631 -0.6051315632 0.1003066688 0.7897812123 -0.5216027880 -0.2357069880 -0.8199833824 -0.2355772989 -0.2211492838 -0.9463595144 -0.1801902341 0.0118267288 -0.9835606784 0.8902839171 0.4018862986 0.2142007236 -0.7720787082 0.4789541660 -0.4177288297 0.8998906776 -0.2555808009 0.3533768847 -0.7822412671 -0.1385252004 -0.6073790982 -0.5810999779 -0.8039950524 0.1261537613 0.7848243619 0.0856524150 0.6137706288 0.0071555693 -0.1588292057 -0.9872801432 -0.7604508573 0.4873021086 -0.4292448586 -0.0372467961 0.1613118962 0.9862003591 -0.3170063690 0.8974731441 -0.3066739598 -0.9261401805 -0.1011354141 -0.3633675744 -0.8915694615 0.1332835369 -0.4328272104 0.4221868030 -0.4055085981 0.8107534028 -0.4810959683 0.4790162725 -0.7342275396 -0.4734602177 0.2992117629 -0.8284369277 0.7938025893 -0.4468987515 0.4125032790 -0.8936713183 0.0936176128 -0.4388477156 0.7219761172 0.1367820745 0.6782633340 -0.8658965881 0.0850138585 -0.4929459834 0.1762943040 -0.5906791451 -0.7874125132 0.1804213438 -0.5890963830 -0.7876633737 0.1768374191 -0.5901053526 -0.7877208897 0.1804583756 -0.5871979685 -0.7890711758 0.1760369609 -0.5880751403 -0.7894166313 -0.4487664017 0.8917529084 0.0581847660 -0.5640259367 0.4586555897 -0.6866657067 -0.5674793557 0.4441227541 -0.6933413013 0.6998351576 0.4064922071 0.5873626118 -0.2679692175 0.8454023325 -0.4620469615 -0.2737182221 0.8683347017 -0.4136099379 0.2866151651 0.8111642075 0.5097689434 -0.4010988878 -0.9017524733 0.1611277725 0.9944016998 -0.0583903083 -0.0880671973 0.8094013692 0.2768811277 -0.5178863433 0.4920499447 -0.7048386675 0.5109689860 0.8383755384 0.3241498377 -0.4382389068 -0.7590686815 0.3521929316 -0.5475170095 -0.3858400252 0.5984639408 -0.7021170747 0.4619459706 -0.7203533996 0.5173943369 0.4621057991 -0.7201460180 0.5175402817 0.4620798977 -0.7201304124 0.5175851209 0.4620700918 -0.7201295402 0.5175950885 0.4620829448 -0.7201297223 0.5175833606 0.4621199987 -0.7201302266 0.5175495760 -0.4511498458 0.8112831064 -0.3718649459 -0.4114353406 0.8924441495 -0.1851064573 -0.3531827179 0.9210754455 -0.1639572857 0.8647910716 -0.2629482819 -0.4277786852 0.0419253062 -0.2651040997 0.9633078869 0.3509057010 -0.8634287180 0.3624307353 0.5781609673 -0.1344272937 -0.8047727621 0.5047159865 -0.3142987292 -0.8040386072 -0.4145601050 -0.8889975269 0.1944821754 0.2769833684 -0.2490197419 0.9280460020 -0.5702318833 -0.0433953606 -0.8203367857 0.6545256180 0.3146755778 0.6874412674 -0.0993828384 0.8263798058 -0.5542738204 -0.0806079944 0.8162897909 -0.5719906717 0.7916901688 0.3130182911 0.5246391389 -0.5253726330 -0.0903126243 -0.8460657341 -0.9101757556 0.2966362557 0.2891142089 -0.5008386553 0.5592612094 -0.6605963526 -0.5408924572 0.5395248133 -0.6452505914 -0.1032635401 0.2449112339 -0.9640306680 0.4359066863 -0.3071416529 0.8459606172 0.4311779774 -0.3564818625 0.8288583917
        </DataArray>
        <DataArray type="Float32" Name="contact force" NumberOfComponents="3" format="ascii">