<?xml version="1.0"?>
<VTKFile type="UnstructuredGrid" version="0.1" byte_order="LittleEndian">
  <UnstructuredGrid>
    <FieldData>
      <DataArray type="Float32" Name="TIME"  NumberOfTuples="1" format="ascii"> 2.3000000000 </DataArray>
      <DataArray type="Int32"   Name="STEP"  NumberOfTuples="1" format="ascii"> 230000 </DataArray>
    </FieldData>
    <Piece NumberOfPoints="280" NumberOfCells="280">
      <Points>
        <DataArray type="Float32" NumberOfComponents="3" format="ascii">
 7.8295733566 0.1531086675 -8.8605768524 7.8612223822 0.0987343212 -8.9809652626 7.9640210926 0.0983217948 -8.8774946920 7.9837724771 0.0910272597 -9.0333613805 7.9972113018 0.3151795568 -8.8493686668 8.0074852513 0.3117209062 -8.8593557910 8.0034523080 0.4020161259 -8.8610944475 8.0733722438 0.1764659250 -9.0904656294 8.0804648349 0.1838491396 -9.0916865114 8.0457353984 0.4316321685 -8.9617955395 8.0497702360 0.4344501422 -8.9764894970 8.1024530370 0.2490300478 -9.1751904455 7.9969601733 0.3831328230 -9.1356028350 8.0050903769 0.3825115715 -9.1470455132 8.0217620866 0.4008590264 -9.1579834577 8.1633691987 0.3909313331 -9.0445867333 8.1729063194 0.3849538724 -9.0558488758 8.1739373807 0.3853663071 -9.1536610236 8.5014116484 0.2598025714 -8.7685777910 8.4321150796 0.3213815254 -8.8421316426 8.4310504514 0.3178466366 -8.8510566691 8.4973608086 0.5287332791 -8.9119304437 8.4950000353 0.5221624956 -8.9330545228 8.4939002155 0.3056809063 -8.9858147497 8.4927489761 0.3199627592 -8.9924057469 8.4328671658 0.4883064283 -9.0313204002 8.4293272516 0.4681001274 -9.0175996267 7.6734913691 0.7004571485 -8.6134778498 7.6865759393 0.6942616026 -8.6205727035 7.6380285547 0.7735696279 -8.4436102775 7.6484242135 0.7756254436 -8.4477365645 7.6377614370 0.7737258163 -8.4317529446 7.6487607454 0.7760275981 -8.4365985230 7.6674098523 0.6112593156 -8.5323674858 7.6728849843 0.6654836097 -8.3977933312 7.6800853559 0.6605365447 -8.4024241960 8.0408478108 0.7044825170 -8.7703144722 8.1184653354 0.7198561021 -8.8539919292 8.0184334996 0.7055827072 -8.8874106768 8.0215108133 0.7100790414 -8.8910571066 8.0157743968 0.7118094505 -8.8931308490 7.8918169655 0.7122040626 -8.8121852869 8.1098940778 0.8303227018 -8.8967621127 7.9655835040 0.7980281481 -8.7888310971 7.9594858552 0.7992021291 -8.7930461295 7.9673921350 0.8039357277 -8.7941030390 7.9617313610 0.8054165395 -8.7987066692 7.9564408561 0.8075431746 -8.8040275741 7.9795224731 0.3433860412 -8.3932700499 7.7959593990 0.5299290255 -8.4440714593 8.0422337674 0.4259517317 -8.4513749100 8.0480688231 0.4271025099 -8.4622583364 8.0309395121 0.3447791976 -8.5097457091 8.0519711405 0.4431645310 -8.4606106765 8.0568494294 0.4431379055 -8.4702099094 7.9279837314 0.3590186262 -8.6013591051 7.9187735393 0.6207274995 -8.3140090679 7.8797978720 0.6747347061 -8.5200297125 8.1034044865 0.4395713270 -8.6035807008 8.1104177771 0.4513362332 -8.6044976261 8.0944866209 0.7266666765 -8.4813686373 8.1029062249 0.7463865917 -8.4926791711 7.9914819419 0.8265579834 -8.6228293074 8.2143181504 0.6990685225 -8.6397649420 8.3807498567 0.2970499797 -8.8337723374 8.3845533982 0.2963185549 -8.8469740696 8.3260636118 0.1199337787 -8.7238097115 8.3701717645 0.1480528278 -8.8535182084 8.0680001371 0.0441150527 -9.0052057728 8.1620470995 0.2171335755 -8.9692848734 8.2399905917 0.3552450398 -8.9485168263 8.1033126258 0.2650615398 -8.8225449429 8.1967307682 0.1635379802 -8.7344357685 8.0839714064 0.1954257921 -8.7430015144 7.6828533954 0.3439618673 -8.6520484162 7.6797427048 0.3374432309 -8.6415845203 7.6899455363 0.3287120520 -8.5445907688 7.6968444459 0.3419791434 -8.5347747871 7.6951825308 0.3525381650 -8.5219639459 7.7013602660 0.3615128096 -8.5165243789 7.6993518036 0.3688976999 -8.5068635419 7.7051488045 0.3759488527 -8.5033633390 7.7030506255 0.3821419347 -8.4948988418 7.7065313666 0.3941018146 -8.4842230146 7.7044063986 0.4003965056 -8.4756491741 7.6496238273 0.4930532445 -8.5333700938 7.6535577063 0.4985546129 -8.5351651824 7.7267580242 0.5279106071 -8.4134116719 7.7205357264 0.5371139943 -8.4199962425 7.7986693604 0.2702038434 -8.4987094588 7.8452266265 0.2013775748 -8.6119646780 7.8420769509 0.1922580552 -8.6092077241 7.8500820299 0.2027353796 -8.6163139973 7.8373315269 0.1855741964 -8.6049969768 7.8473382351 0.1923229517 -8.6139190016 7.8544456248 0.2058430688 -8.6202065091 7.8585082911 0.2108762433 -8.6238141034 7.8624538502 0.2182842303 -8.6272932486 7.8664959074 0.2289316044 -8.6308121427 7.7561050197 0.1867822655 -8.4518754153 7.8724469053 0.2280948096 -8.6361724004 7.9374322072 0.2201948336 -8.5815353618 7.9425905512 0.2288690726 -8.5865928011 7.9498767649 0.2266889414 -8.5920243866 7.7900346634 0.1147861562 -8.4612676993 7.7451810703 0.0399145934 -8.4887801456 7.7574993183 0.0186111600 -8.5029262739 7.8390619646 -0.0597619380 -8.5130291017 7.9511247977 0.0273681947 -8.5861990046 7.9609238988 0.0482106234 -8.5944580783 7.9653993020 0.0588988742 -8.5981906628 7.9710583041 0.0645852733 -8.6032317859 8.3833962147 0.1785711878 -9.0174479180 8.4477789197 0.1048146438 -8.8481272197 8.0195467637 0.1457048607 -8.5408704235 8.0140162252 0.1940681103 -8.4753738515 8.0237840071 0.1462689756 -8.5418003603 8.0574378713 0.2662381383 -8.5260223200 8.2969495049 0.6662782732 -8.6739472702 8.3049355519 0.6800312593 -8.6688694221 8.2219472799 0.6051265092 -8.8226531008 8.3169828910 0.6666775893 -8.8176576241 8.3131391141 0.6698355719 -8.8225924631 8.3164029838 0.6761145442 -8.8205799244 8.2364571971 0.7371725240 -8.8136456175 7.9990397547 0.4666412073 -8.8256585031 8.0712370603 0.4760853331 -8.8391422508 8.0756675472 0.4949299450 -8.8328973867 8.0829006876 0.4892370579 -8.8449113897 7.9405254555 0.5201687811 -8.9443728001 7.9438868332 0.5359785107 -8.9462623012 7.9513201328 0.5353478457 -8.9581170777 8.1380010479 0.6352017666 -8.9175261525 8.1451151870 0.6390683061 -8.9248737562 8.1855154966 0.4683533872 -9.0301051878 8.1919512255 0.4794784370 -9.0328734015 8.1524736835 0.6431584994 -8.9325271219 8.1981513153 0.4903167593 -9.0357008484 8.1603973277 0.6477535017 -8.9408751484 8.0398974037 0.7298345914 -9.0082261472 8.1693621581 0.6532717076 -8.9504915228 8.1042524350 0.7593302664 -9.0033663758 8.0949788425 0.6398939122 -9.1316055826 8.2000108560 0.5744201227 -9.1245675599 8.1053290725 0.6545788486 -9.1443050940 8.2641584675 0.6839267001 -9.0613042767 8.0944863135 0.0774751841 -8.6461273258 8.1061439331 -0.0230442838 -8.5916207624 7.9432826693 0.0547409332 -8.4863902390 7.9571215767 -0.0491134073 -8.4611955776 7.9464276224 -0.0410572202 -8.4680999976 8.5269920571 0.4297139512 -8.9328676444 7.8004301410 0.0395240243 -8.7426171527 7.7979565746 0.0087395309 -8.7857066849 7.8063391645 0.0393282148 -8.7440437299 7.8112459246 0.0060751658 -8.7856533615 7.8015133100 0.1025604225 -8.8021910198 7.8048269763 0.1005577113 -8.8038314098 7.8082761814 0.1036983704 -8.8030344625 7.8117001998 0.1017418033 -8.8046453200 7.8120371763 0.1069739632 -8.8022423638 7.8156409935 0.1050608267 -8.8039087480 7.8421658318 0.1253521744 -8.7389545711 7.8503098879 0.1314929701 -8.7416537195 7.6699190267 0.7927544339 -8.3554011119 8.0410057339 0.3324635801 -8.7930419702 8.0586801281 0.5835169140 -9.1709703475 8.0515992379 0.5869362276 -9.1649010761 8.2007252036 0.0667622105 -9.0483949714 8.1848125216 0.0722337649 -9.0008137101 8.1945439058 0.0774953467 -9.0016866402 8.1887356183 0.0783166503 -8.9962898119 8.2668601282 0.1212427481 -9.0692263470 8.2748442166 0.1350129518 -9.0686536050 8.1314166415 0.1858166777 -9.0703706587 8.1359513737 0.1900021906 -9.0712410527 8.1613504370 0.0762257488 -8.5384455345 8.1610622892 0.0779904085 -8.5477940811 8.3576478627 0.6093312957 -9.0468749547 8.3394978715 0.5953764130 -8.9527098883 8.3328520115 0.4747158220 -9.0254944112 8.3317556362 0.4702678543 -9.0301875926 8.3288313407 0.4672117354 -9.0251466047 8.2870527467 0.4006838979 -9.0902700655 8.2760066764 0.3861436369 -9.0885306565 8.4713485143 0.0427028858 -8.9059543669 7.7061783895 0.7467132571 -8.7445669361 7.7160121005 0.7424813402 -8.7473407208 7.7058033474 0.7347675421 -8.7481255371 8.2680039358 0.6356502599 -8.9126783531 8.1868513695 0.5728464758 -8.8392004113 8.1802609704 0.5758839751 -8.8316936672 7.7693618355 0.7754856656 -8.3851454908 7.7769405854 0.7747984613 -8.3827622200 7.7036021316 0.1864596628 -8.6876212613 7.7680039716 0.1999521520 -8.7963466822 7.8912277334 0.0416112833 -8.4326993166 7.9205167776 0.0847603441 -8.4557541859 8.1536695089 -0.0452009220 -8.6742336458 8.1505207232 -0.0529033909 -8.6793996145 8.1042450079 -0.0047579117 -8.7120482472 8.1596218536 0.0017574176 -8.8176223431 8.1944400960 -0.0157681574 -8.8079268793 7.9908991019 0.7820613511 -8.3420991430 7.8330506310 0.8188486601 -8.4366466617 8.2305813195 0.1719979755 -8.6476540171 8.2491584404 0.1077335039 -8.6945676178 8.2450829485 0.1030480499 -8.6901387927 8.1362348569 0.1052104561 -8.6835026497 8.0442568916 0.0915954680 -9.1208285436 8.2947262537 0.1984104361 -9.2043525758 7.8580015155 0.7620168720 -8.8591193082 7.7950083451 0.8739296042 -8.8299340977 8.1925646388 0.7155650212 -8.5291600929 8.1988547260 0.7106833057 -8.4523635736 8.2025567880 0.7409200453 -8.4565086299 7.7848104459 -0.0209904378 -8.8717208824 8.0342395270 0.7371292317 -8.3482925469 7.8301726589 0.7221487618 -8.6628199765 7.8886800974 0.8471252612 -8.6311550837 7.8953249913 0.8497491152 -8.6442993328 7.8662204882 0.8255177175 -8.6577444811 7.6488103253 0.1054861943 -8.6024642475 7.7066332263 0.0425115278 -8.6928584173 8.0643033087 0.8852369200 -9.0569091522 8.0629576639 0.8880761858 -9.0500121530 8.1891469522 0.8849490853 -8.9140789431 8.2878897248 0.8760335776 -8.8792377399 8.1828058651 0.8866657260 -8.9039180660 8.2859662246 0.8544100124 -8.8789704804 8.3436369344 0.6430731505 -8.8701689454 8.3457815993 0.6473075682 -8.8726182320 8.3416842179 0.6495915375 -8.8745541436 8.3437738482 0.6546311312 -8.8775060092 8.3396222177 0.6576732726 -8.8799482843 8.3569542021 0.3732049598 -9.0237503590 8.2222986553 0.0369804265 -8.9380976199 8.2230389252 0.0322024486 -8.9453816531 8.2903550450 0.0397145233 -9.1152814441 8.2901329059 0.0319595622 -9.1093826611 8.3104471614 0.0235363689 -9.0716589699 8.3101651439 0.0256607668 -9.0617202485 7.8537543652 0.2564897848 -8.8196402717 8.1860635819 0.8522362195 -9.0302786228 8.1858112258 0.8607566430 -9.0290349533 8.1124907897 0.8786153450 -8.9948544719 8.1116204537 0.8804962244 -8.9902584093 8.1140834124 0.8858661110 -8.9846788906 8.1135193374 0.3960766113 -8.3915719908 7.9685733877 0.4937057635 -8.2444225844 7.8836940931 0.5016282723 -8.9394608115 7.8913373035 0.4951935620 -8.9440038850 8.1063377560 0.1266821973 -9.2727997236 8.1147461192 0.1371592569 -9.2653819635 8.1170947855 0.1419042909 -9.2600449248 8.1197595008 0.1457803562 -9.2566748144 8.1228937734 0.1491424154 -9.2548523812 8.1267205762 0.1522164447 -9.2544641213 8.2195720680 0.0159490477 -8.8703805752 8.2102045997 0.0130095721 -8.8622419939 8.2380258117 0.0238071139 -8.8832389983 8.1659318470 0.3050637161 -9.2321575063 8.6097544666 0.3288363640 -8.8837593624 7.7433733754 0.4145194987 -8.7584584786 7.6821155076 0.5322687767 -8.6055725951 7.6738601081 0.5194598866 -8.6072564874 7.8161208539 0.5738390966 -8.6569431969 8.1289157242 0.4083052741 -9.2751381394 7.8372310412 0.6551670128 -8.7067056818 7.8397770765 0.6519744111 -8.7086238050 7.8686569582 0.4373145503 -8.8861559205 7.9313675268 0.1918850282 -8.3523218871 7.8800454639 0.2063273848 -8.3945054658 8.0625116081 0.7082822348 -8.3962302652 8.1472110090 -0.0165161792 -8.6109642657 7.7613689179 0.3252490900 -8.4701800228 7.7556405082 0.3219564766 -8.4669605777 8.2491544395 -0.0586512732 -8.7361824970 7.9401513783 0.8483442346 -8.6999790668 7.9338859789 0.8418486037 -8.6986515607
        </DataArray>
      </Points>
      <Cells>
        <DataArray type="Int32" Name="connectivity" format="ascii">
 0 1 2 3 4 5 6 7 8 9 10 11 12 13 14 15 16 17 18 19 20 21 22 23 24 25 26 27 28 29 30 31 32 33 34 35 36 37 38 39 40 41 42 43 44 45 46 47 48 49 50 51 52 53 54 55 56 57 58 59 60 61 62 63 64 65 66 67 68 69 70 71 72 73 74 75 76 77 78 79 80 81 82 83 84 85 86 87 88 89 90 91 92 93 94 95 96 97 98 99 100 101 102 103 104 105 106 107 108 109 110 111 112 113 114 115 116 117 118 119 120 121 122 123 124 125 126 127 128 129 130 131 132 133 134 135 136 137 138 139 140 141 142 143 144 145 146 147 148 149 150 151 152 153 154 155 156 157 158 159 160 161 162 163 164 165 166 167 168 169 170 171 172 173 174 175 176 177 178 179 180 181 182 183 184 185 186 187 188 189 190 191 192 193 194 195 196 197 198 199 200 201 202 203 204 205 206 207 208 209 210 211 212 213 214 215 216 217 218 219 220 221 222 223 224 225 226 227 228 229 230 231 232 233 234 235 236 237 238 239 240 241 242 243 244 245 246 247 248 249 250 251 252 253 254 255 256 257 258 259 260 261 262 263 264 265 266 267 268 269 270 271 272 273 274 275 276 277 278 279
        </DataArray>
        <DataArray type="Int32" Name="offsets" format="ascii">
 1 2 3 4 5 6 7 8 9 10 11 12 13 14 15 16 17 18 19 20 21 22 23 24 25 26 27 28 29 30 31 32 33 34 35 36 37 38 39 40 41 42 43 44 45 46 47 48 49 50 51 52 53 54 55 56 57 58 59 60 61 62 63 64 65 66 67 68 69 70 71 72 73 74 75 76 77 78 79 80 81 82 83 84 85 86 87 88 89 90 91 92 93 94 95 96 97 98 99 100 101 102 103 104 105 106 107 108 109 110 111 112 113 114 115 116 117 118 119 120 121 122 123 124 125 126 127 128 129 130 131 132 133 134 135 136 137 138 139 140 141 142 143 144 145 146 147 148 149 150 151 152 153 154 155 156 157 158 159 160 161 162 163 164 165 166 167 168 169 170 171 172 173 174 175 176 177 178 179 180 181 182 183 184 185 186 187 188 189 190 191 192 193 194 195 196 197 198 199 200 201 202 203 204 205 206 207 208 209 210 211 212 213 214 215 216 217 218 219 220 221 222 223 224 225 226 227 228 229 230 231 232 233 234 235 236 237 238 239 240 241 242 243 244 245 246 247 248 249 250 251 252 253 254 255 256 257 258 259 260 261 262 263 264 265 266 267 268 269 270 271 272 273 274 275 276 277 278 279 280
        </DataArray>
        <DataArray type="UInt8" Name="types" format="ascii">
 1 1 1 1 1 1 1 1 1 1 1 1 1 1 1 1 1 1 1 1 1 1 1 1 1 1 1 1 1 1 1 1 1 1 1 1 1 1 1 1 1 1 1 1 1 1 1 1 1 1 1 1 1 1 1 1 1 1 1 1 1 1 1 1 1 1 1 1 1 1 1 1 1 1 1 1 1 1 1 1 1 1 1 1 1 1 1 1 1 1 1 1 1 1 1 1 1 1 1 1 1 1 1 1 1 1 1 1 1 1 1 1 1 1 1 1 1 1 1 1 1 1 1 1 1 1 1 1 1 1 1 1 1 1 1 1 1 1 1 1 1 1 1 1 1 1 1 1 1 1 1 1 1 1 1 1 1 1 1 1 1 1 1 1 1 1 1 1 1 1 1 1 1 1 1 1 1 1 1 1 1 1 1 1 1 1 1 1 1 1 1 1 1 1 1 1 1 1 1 1 1 1 1 1 1 1 1 1 1 1 1 1 1 1 1 1 1 1 1 1 1 1 1 1 1 1 1 1 1 1 1 1 1 1 1 1 1 1 1 1 1 1 1 1 1 1 1 1 1 1 1 1 1 1 1 1 1 1 1 1 1 1 1 1 1 1 1 1 1 1 1 1 1 1 1 1 1 1 1 1
        </DataArray>
      </Cells>
      <PointData Scalars="overlap">
        <DataArray type="Float32" Name="overlap" format="ascii">
 0.0001518428 0.0001157799 0.0001566210 0.0000507807 0.0000770339 0.0000413345 0.0001173500 0.0000523015 0.0002462637 0.0003336875 0.0000250574 0.0000023770 0.0000503184 0.0000261066 0.0003355227 0.0000043682 0.0002266022 0.0000877164 0.0001563933 0.0003467778 0.0001981940 0.0002387605 0.0002769844 0.0003087193 0.0002504345 0.0001103049 0.0004382678 0.0006437674 0.0003250635 0.0000742370 0.0000022523 0.0000916019 0.0000677628 0.0003432019 0.0002897534 0.0003357238 0.0000975858 0.0002635949 0.0002541673 0.0005656811 0.0000698482 0.0002307650 0.0001281437 0.0001259948 0.0001784331 0.0002043251 0.0003764523 0.0001599217 0.0000666114 0.0001844401 0.0000561218 0.0000311541 0.0000173293 0.0000225869 0.0001019435 0.0003241661 0.0000345172 0.0000308653 0.0001135104 0.0000063406 0.0000468980 0.0000755671 0.0002109409 0.0000392583 0.0000184945 0.0001378943 0.0000225536 0.0000237193 0.0000326995 0.0001764845 0.0000563605 0.0001114632 0.0000990116 0.0000740428 0.0001315630 0.0001056724 0.0000075222 0.0000020514 0.0000418915 0.0000491669 0.0000539602 0.0000169453 0.0000425085 0.0000065492 0.0000049645 0.0001027165 0.0000731854 0.0000692251 0.0000574349 0.0000235097 0.0000453747 0.0000326944 0.0000688432 0.0000086208 0.0000303778 0.0000831741 0.0000984864 0.0001114129 0.0000950098 0.0000372094 0.0001136838 0.0000040173 0.0000479850 0.0000028148 0.0000538378 0.0000043943 0.0000302765 0.0000094059 0.0000072337 0.0000922232 0.0000476922 0.0000182614 0.0000154430 0.0001100341 0.0000076891 0.0000172212 0.0000317731 0.0000133720 0.0000766573 0.0000682969 0.0000411193 0.0000559171 0.0001911344 0.0000364972 0.0002665309 0.0001455381 0.0001410594 0.0001216684 0.0000689988 0.0000851230 0.0000281262 0.0000779161 0.0000024342 0.0000190470 0.0000556697 0.0001866598 0.0000321341 0.0001261475 0.0000446597 0.0003543834 0.0000484740 0.0000605417 0.0000331398 0.0001157486 0.0002694292 0.0001500026 0.0000332572 0.0000104510 0.0000910424 0.0000815277 0.0000088649 0.0000157526 0.0001109533 0.0000225589 0.0000379231 0.0001071771 0.0000234093 0.0000232195 0.0000413375 0.0000525081 0.0000081768 0.0000161741 0.0000496713 0.0000462133 0.0000627941 0.0000326272 0.0001094649 0.0000755822 0.0000627123 0.0000253662 0.0000333008 0.0000898012 0.0000450881 0.0000110664 0.0002091741 0.0000331268 0.0000303466 0.0001717146 0.0000536126 0.0000376498 0.0001241816 0.0000916550 0.0001248271 0.0001456023 0.0000237731 0.0000171610 0.0003789863 0.0001068403 0.0002796946 0.0000403190 0.0000349116 0.0000378683 0.0000461321 0.0000552187 0.0000806787 0.0001300145 0.0000148176 0.0000269519 0.0000079979 0.0000077161 0.0000173191 0.0000119462 0.0000154101 0.0000275619 0.0000048061 0.0000103644 0.0000895507 0.0000548318 0.0000346074 0.0000183887 0.0000618215 0.0004419838 0.0001745783 0.0000516178 0.0000641451 0.0000195601 0.0000780789 0.0000020702 0.0000705093 0.0000457197 0.0000379737 0.0001376661 0.0000432965 0.0001013844 0.0000013245 0.0000534927 0.0001297592 0.0000028139 0.0000163205 0.0000492574 0.0000028723 0.0000002006 0.0000205444 0.0000233469 0.0000024845 0.0000374840 0.0000760002 0.0000252227 0.0000239028 0.0000028478 0.0000255509 0.0000394930 0.0000231866 0.0000399837 0.0000337778 0.0000041163 0.0000162059 0.0000058177 0.0000393743 0.0000186642 0.0000238683 0.0000908242 0.0000363487 0.0000643041 0.0000273216 0.0000050400 0.0000014962 0.0000108974 0.0000314788 0.0000164536 0.0000365402 0.0000336204 0.0000083295 0.0000222669 0.0000451267 0.0000159930 0.0000535643 0.0000202133 0.0000136106 0.0000073236 0.0000316081 0.0000204652 0.0000253261 0.0000124161 0.0000417999 0.0000114562 0.0000219301 0.0001009581 0.0000151218 0.0000665958
        </DataArray>
        <DataArray type="Float32" Name="contact normal" NumberOfComponents="3" format="ascii">
 0.4581522087 0.0001203671 -0.8888737476 0.4399678485 0.8495835320 0.2909228669 -0.5954820575 0.7489679819 -0.2905995204 -0.6794524467 0.7312790869 -0.0597935604 -0.7547229521 0.0707413501 -0.6522184657 -0.6616913943 0.0283592933 -0.7492397809 0.1788976912 -0.6292254783 -0.7563536960 -0.7807976565 0.6223702628 0.0548659777 -0.7401123982 0.6716861803 0.0327309219 -0.2944276350 -0.9324498541 -0.2094030501 -0.3374056329 -0.8167934680 -0.4679806293 -0.3074662779 0.2835886728 0.9083182001 0.6567260742 -0.5532606728 0.5124582826 0.6615930469 -0.5458107284 0.5141841004 0.6965615664 -0.4878355841 0.5261353696 -0.8276131853 0.1594566426 -0.5381728297 -0.8026338441 0.0119344658 -0.5963526481 -0.0077053178 -0.2628845415 0.9647965308 -0.9576176627 0.2840063839 -0.0480498279 0.9749284714 -0.1719263284 0.1412650458 0.9870322529 -0.1502939484 0.0563831612 -0.9683379145 -0.2326901877 0.0904265443 -0.9666400514 -0.2492890097 0.0588387682 -0.9200585749 0.0827454647 0.3829430855 -0.9241496220 0.3321018716 0.1888274952 0.9731846483 0.0533919679 0.2237430179 0.9604624034 -0.0719169197 0.2689608305 0.0701644829 -0.5980948188 0.7983480025 0.1381949720 -0.6415364618 0.7545416608 0.2055681576 -0.9784970314 0.0168905937 0.2058192447 -0.9784436410 0.0169257162 0.2056027899 -0.9784896714 0.0168954381 0.2716811140 -0.9620315404 0.0261665345 0.3231145006 0.9462723310 0.0128722612 0.0173775112 0.6869327922 -0.7265131528 0.0486134977 0.6559646211 -0.7532244976 -0.6655307945 -0.0463839211 -0.7449277102 -0.7561415011 0.5573267992 0.3429823162 -0.3903695498 0.5076085239 0.7680789029 -0.3260945928 0.5292054367 0.7833287447 -0.3674686371 0.5370421923 0.7593105322 0.8761777455 0.1830660257 0.4458692505 0.2789506226 -0.7836262794 0.5550823402 0.2792398738 -0.7381073440 -0.6141845338 0.2846639052 -0.7312952109 -0.6198175341 0.3723036420 -0.6647640806 -0.6476717651 0.3565167217 -0.6776664988 -0.6431671195 0.3455400197 -0.6863914845 -0.6398975111 -0.0519486074 0.8913288804 -0.4503711460 0.8086815513 -0.4357888212 0.3951230844 -0.8643363384 0.2666339595 -0.4264141482 -0.8609216970 0.2478007468 -0.4443069002 -0.6826998901 0.7029299160 -0.1995254204 -0.8585699132 0.3102974457 -0.4081338008 -0.8592300525 0.2783117714 -0.4292624776 0.4757091341 0.4605818685 0.7493765156 -0.3075690378 -0.3220617506 -0.8953644598 0.4938012633 -0.8523601361 -0.1721700053 -0.9468994893 0.3057527544 -0.0994817082 -0.7838756241 0.5613321628 0.2654151634 -0.7181918334 -0.1412200318 -0.6813643614 -0.5981127652 -0.1113536929 -0.7936381261 0.5329582712 -0.7689521407 0.3530836820 -0.8790399198 -0.0600542333 -0.4729506406 0.8704214324 -0.3863804077 0.3050847596 0.8743500587 -0.3803734049 0.3013769198 0.0133187698 0.8754283207 -0.4831644292 -0.7077283970 0.7022291285 0.0774258816 0.2173102313 -0.5844433979 0.7817942044 0.2267984654 0.5343238032 0.8142852875 -0.2018419331 -0.8675395567 0.4545711733 0.8347828543 -0.3030805042 0.4596518183 -0.4752217002 0.6608138722 -0.5809383462 0.7925286052 0.5380644852 -0.2870279074 0.0410458945 0.8820720071 0.4693231390 -0.0649857439 0.5774147899 0.8138605615 -0.4503958199 0.6647704183 -0.5960066244 -0.4042118588 0.6726213138 -0.6198333175 -0.4504329450 0.6647793028 -0.5959686574 -0.4044538408 0.6725863060 -0.6197134432 -0.4504472163 0.6647765604 -0.5959609300 -0.4503600068 0.6647933171 -0.5960081458 -0.4504510784 0.6647758182 -0.5959588388 -0.4504510792 0.6647758180 -0.5959588384 -0.4505424984 0.6647582442 -0.5959093337 0.7965623307 -0.5194909755 0.3092209238 0.7986819241 -0.5131131491 0.3143597945 -0.2990601975 -0.9041267174 -0.3051522196 0.1229408421 -0.4414104626 -0.8888432667 -0.4019655057 -0.1862693697 -0.8965084797 0.6647803388 -0.0036685373 0.7470298809 0.6650825842 -0.0040214916 0.7467589864 0.6652107348 -0.0041708913 0.7466440129 0.6650395432 -0.0039712199 0.7467975866 0.6656396558 -0.0046726120 0.7462586785 0.6654611311 -0.0044636008 0.7464191579 0.6655464127 -0.0045542056 0.7463425700 0.6655255401 -0.0043212299 0.7463625677 0.6651350907 -0.0038089303 0.7467133340 -0.6675726586 -0.1843751094 -0.7213546732 0.6662321573 -0.0031098982 0.7457379172 -0.6291046800 -0.0749500543 -0.7736987728 -0.6328434453 -0.0685118035 -0.7712427027 -0.6166026535 -0.0938584678 -0.7816596163 -0.3657006592 -0.2131307749 -0.9060012697 0.8369152098 0.5426632893 -0.0713406342 0.8355842451 0.5047532791 -0.2168480956 -0.4185793935 0.4936953368 -0.7622704282 -0.6651873020 0.0093431485 -0.7466180810 -0.6659936153 0.0128677044 -0.7458464497 -0.6850439213 0.0378198078 -0.7275194073 -0.6663334441 0.0137774834 -0.7455266073 0.6832185669 -0.7257104450 0.0809736982 -0.7650941674 0.5008268312 -0.4047263274 0.0559004716 0.5205545595 0.8519965304 -0.0649758355 -0.5178599626 -0.8529942555 0.1055296378 0.5758928209 0.8106854842 -0.2621014012 -0.9649370322 0.0141201754 0.0653650138 0.2806752405 -0.9575744485 0.1166380863 0.3479287088 -0.9302371582 0.6380149741 0.7597552788 -0.1253347884 -0.7002635442 0.1794726258 0.6909562542 -0.7025407644 0.1777179412 0.6890956448 -0.6975801755 0.1823836312 0.6929055562 0.6823494771 -0.6814875802 0.2645257438 0.0666060254 0.9595213483 -0.2736465228 -0.8275746952 -0.4770890384 -0.2958144238 -0.5204598687 0.6415441162 -0.5635092476 -0.4899719084 0.6094734050 -0.6232733730 0.8112454522 -0.1021141103 0.5757200055 0.8112384521 -0.1020857953 0.5757348906 0.8625609390 -0.1306030324 0.4888061727 -0.5022988666 -0.4645987226 -0.7292762684 -0.5024990850 -0.4645287426 -0.7291829104 -0.8456161904 0.3934910899 -0.3606910321 -0.8456193614 0.3934989087 -0.3606750678 -0.5026387162 -0.4643418356 -0.7292057190 -0.8456221702 0.3935058343 -0.3606609262 -0.5029705288 -0.4640994271 -0.7291312426 0.3306028564 -0.9402047449 0.0819560187 -0.5038201178 -0.4643410182 -0.7283904913 0.2287291674 -0.9035638444 0.3622917983 0.6789637019 0.0330534115 0.7334274085 -0.6227674771 0.3315747576 0.7086740080 0.7441423537 0.2158361204 0.6321921595 -0.8806367009 0.3544720403 0.3143701221 -0.3340495360 0.2469711394 0.9096241882 -0.9148864434 0.3993991844 0.0588480009 -0.1460435910 -0.3689502297 -0.9179035884 0.5495685325 0.3954372439 -0.7359373711 0.5635094858 0.1771451839 -0.8068932043 -0.8496155120 0.4474506017 0.2791799433 -0.2434451220 0.2278522421 -0.9427713553 0.1856552470 0.9552679182 0.2302071540 -0.2048667485 0.1847362625 -0.9611982775 0.1970823521 0.9536164326 0.2275395479 0.1455548209 -0.4091361981 0.9007893014 0.1496630318 -0.4132113036 0.8982524119 0.1685660256 -0.4101646519 0.8962981945 0.1774617341 -0.4177673484 0.8910543056 0.1740323828 -0.4143315382 0.8933320246 0.1812693475 -0.4212087031 0.8886645329 -0.3150996382 -0.3105283096 -0.8968190380 0.3545694910 -0.4946092488 -0.7934999478 -0.5483923730 0.4286138117 -0.7180222877 -0.0620695752 0.6419643685 0.7642179777 0.5797549251 0.7781422249 0.2416172689 0.5241926025 0.8251249162 0.2106916897 0.0694348939 0.8826951408 0.4647882140 -0.5142364027 0.6766628443 -0.5269614002 -0.4531921859 0.7101473198 -0.5388020294 -0.4764686498 0.6989110594 -0.5333863110 -0.8723489494 0.4676714955 -0.1424453679 -0.8547078082 0.5051081803 -0.1197509447 0.5743038157 -0.6448267573 0.5043546176 0.5769798815 -0.6359946433 0.5124500269 -0.7763489432 0.6184357305 0.1217356384 -0.7873568973 0.6081080620 0.1013592684 -0.5064618725 -0.8193045877 0.2687682352 0.0655146248 -0.5363036893 -0.8414785718 -0.7682095355 0.6242832292 0.1418610567 -0.8404726830 0.4151210470 -0.3482530481 -0.9098489047 0.3026826702 -0.2838277149 -0.6706222696 0.6422624465 0.3711667030 -0.6993200740 0.5755097497 0.4239575003 0.4913996761 0.5461838962 0.6783874334 0.4474094241 0.0273474108 0.8939110282 0.4921059734 0.0272094297 0.8701099688 -0.1944217499 -0.4206457231 0.8861474814 -0.8869450825 0.3994136485 -0.2319421439 -0.4400819729 0.5949967449 -0.6725375310 -0.4728450139 0.6264431999 -0.6196664507 -0.2815991622 0.1808503305 0.9423349032 -0.2804019140 0.1751638499 0.9437650090 0.6078095627 0.7900928396 -0.0795037123 -0.4983112323 0.0333822072 0.8663553220 -0.6165138838 -0.2089473110 -0.7591124108 -0.3515052050 -0.1772950993 -0.9192445478 -0.4930075450 0.5381515778 -0.6836200991 -0.6414651561 0.0882499894 -0.7620593106 0.9009367488 -0.3898459008 0.1906125608 0.5103442491 -0.6985708026 0.5015451936 -0.9316610806 -0.0887583286 0.3523202947 -0.3086951067 0.0588808703 -0.9493368076 0.8984820201 0.4221536780 0.1204837406 -0.3498524174 -0.8676313251 -0.3532975655 -0.7476911505 0.5909771511 -0.3028266011 -0.8235326180 0.4880853657 -0.2890790599 0.9456348896 -0.2415542023 0.2177756252 0.4797574633 -0.7373327461 0.4755767004 0.6491923437 0.6610625478 0.3762254759 -0.8470519965 -0.1424069631 -0.5120773107 -0.5496896907 -0.8343273296 -0.0417031298 0.8559746986 0.0813081109 0.5105842795 -0.1181910376 -0.1038667628 -0.9875437075 -0.1076396222 -0.1026256822 -0.9888790022 -0.2294961284 -0.5598468448 0.7961802795 0.0886236633 0.1052713753 0.9904866399 -0.3809991399 0.9008896032 -0.2079364763 -0.9625924217 -0.1150009140 -0.2453377661 -0.9443842680 0.1240538189 -0.3045472120 0.5371178029 -0.4337688331 0.7234286871 -0.5875137127 0.5008625161 -0.6355819203 -0.5736717109 0.3963874839 -0.7167829034 -0.9766274219 0.0341936587 -0.2122019617 -0.9767785111 0.0321695589 -0.2118227083 0.8536103895 -0.4399863115 0.2788572191 -0.9459803276 0.0847288678 -0.3129572475 0.8007124794 0.1245526357 0.5859574783 -0.9253278540 0.0801692430 -0.3705958111 0.0885253886 -0.5396085517 -0.8372489872 0.0925373838 -0.5378589980 -0.8379406488 0.0890131674 -0.5389960948 -0.8375917059 0.0923394152 -0.5358842551 -0.8392267259 0.0879446231 -0.5369058936 -0.8390457703 -0.4632172961 0.8699392303 0.1692201883 -0.6627094054 0.4749438486 -0.5790030956 -0.6665847556 0.4606887520 -0.5860295533 0.7587318557 0.3989940721 0.5149074690 0.7625607831 0.3709940992 0.5299664427 -0.3520643154 0.8592088422 -0.3712288827 -0.3520549267 0.8791707246 -0.3211170589 -0.3496621212 -0.9235452631 0.1574818973 0.9755121594 -0.0170817267 -0.2192811925 0.7258024427 0.3347507069 -0.6009598809 0.5753299776 -0.7134400348 0.3999984169 0.5752577810 -0.7134930293 0.4000077281 0.6118417796 -0.6849630339 0.3955695627 -0.8365744137 0.3533777608 -0.4186495056 -0.4920388962 0.6219746757 -0.6091348188 0.4316530521 0.8214931307 -0.3725918395 0.3991897175 0.7926701949 -0.4607836060 0.5472850515 -0.7301996820 0.4090079423 0.5474564665 -0.7299949116 0.4091440410 0.5474362398 -0.7299827831 0.4091927416 0.5474277976 -0.7299828292 0.4092039534 0.5474389755 -0.7299818867 0.4091906807 0.5474712311 -0.7299791479 0.4091524101 -0.5202009938 0.8131352238 -0.2611551911 -0.4587153939 0.8852775256 -0.0765760411 -0.3989502756 0.9149154056 -0.0613879325 0.8064753108 -0.2036734120 -0.5550808178 0.1768357376 -0.3165810339 0.9319364629 0.4209410723 -0.8682250155 0.2626669681 0.4712807588 -0.0673146955 -0.8794106994 0.4038933541 -0.2496294923 -0.8800882201 -0.3588016731 -0.9132119929 0.1931455811 -0.8677011593 -0.2101021384 0.4505017087 0.4746070373 -0.0872390757 0.8758638614 0.4857420300 -0.1247855940 0.8651492564 0.2275147817 -0.2080305485 0.9512940213 -0.1893975027 0.8484212605 -0.4942772003 0.7261677679 0.3941809352 0.5632954492 -0.6293053539 -0.0629188456 -0.7746069909 -0.8724948201 0.2462373269 0.4220426136 -0.5995555345 0.5761546004 -0.5554989086 -0.6366263398 0.5541505067 -0.5363059941 -0.2364477628 0.2940056813 -0.9260956294 0.5524379587 -0.3370549832 0.7623688347 0.5469598353 -0.3855191813 0.7431082690
        </DataArray>
        <DataArray type="Float32" Name="contact force" NumberOfComponents="3" format="ascii">