<?xml version="1.0"?>
<VTKFile type="UnstructuredGrid" version="0.1" byte_order="LittleEndian">
  <UnstructuredGrid>
    <FieldData>
      <DataArray type="Float32" Name="TIME"  NumberOfTuples="1" format="ascii"> 0.6500000000 </DataArray>
      <DataArray type="Int32"   Name="STEP"  NumberOfTuples="1" format="ascii"> 65000 </DataArray>
    </FieldData>
    <Piece NumberOfPoints="237" NumberOfCells="237">
      <Points>
        <DataArray type="Float32" NumberOfComponents="3" format="ascii">
 0.8200813846 0.2157342277 -0.6657315415 0.8602964580 0.1398214461 -0.7709836798 0.9456830206 0.1420437246 -0.6527044643 0.9865752203 0.1083866961 -0.8008100949 1.0069565338 0.3545452094 -0.6482784506 1.0179309932 0.3482909913 -0.6558761900 1.0279644736 0.4369906728 -0.6701340284 1.0954771016 0.1716951063 -0.8529759537 1.1037098112 0.1778225477 -0.8539626085 1.0884543153 0.4449985478 -0.7654223377 1.0949731529 0.4449878485 -0.7794905438 1.1472697628 0.2259829100 -0.9404937893 1.0587448184 0.3770835144 -0.9369977600 1.0682644198 0.3736637258 -0.9467498806 1.0889382506 0.3878013901 -0.9570920586 1.2194130826 0.3683915622 -0.8300530353 1.2347294663 0.3536041237 -0.9255251449 1.4796497828 0.2477517642 -0.4780346631 1.4319776209 0.3056310720 -0.5696021432 1.4316916415 0.3009277302 -0.5780337227 1.5373949400 0.4895008051 -0.6544131001 1.5372568556 0.4801079668 -0.6745709510 1.5109689606 0.2600372235 -0.6976305412 1.5129676500 0.2731574461 -0.7061528882 1.4856705726 0.4397501439 -0.7764489603 1.4771339691 0.4225405195 -0.7609575681 0.6650238464 0.9145699532 -0.3603749171 0.6829315181 0.7363278837 -0.4334966486 0.7755486730 0.8287837867 -0.4890675255 0.7809804690 0.8202294714 -0.4936676773 0.6773657716 0.8087358969 -0.3076640328 0.6842785087 0.8022101225 -0.3103525437 1.0971613817 0.7423849261 -0.6150680744 1.1876547191 0.7345784496 -0.6858932982 1.0925969759 0.7284064665 -0.7333836176 1.0968263480 0.7318477268 -0.7370288019 1.0917851217 0.7339676042 -0.7402375696 0.9587737043 0.7627762381 -0.6818973092 1.2023039455 0.8373776096 -0.7435855227 1.0405082512 0.8409317621 -0.6579622026 1.0353436925 0.8422252085 -0.6632518729 1.0439460051 0.8456723388 -0.6635874659 1.0393123106 0.8471502106 -0.6692243763 1.0352442775 0.8491024924 -0.6755853687 0.7837453313 0.6533648564 -0.3138068249 1.0097199131 0.5184268775 -0.2665297143 1.0171851335 0.5171233022 -0.2763479986 1.0231852183 0.5326151058 -0.2762165509 1.0293492132 0.5304780357 -0.2847839986 0.9096338263 0.4446720892 -0.4232261139 0.8987422283 0.7463006942 -0.1783325304 1.0349827578 0.5276971669 -0.2930665928 1.0443272801 0.5389541526 -0.2989401365 0.8987893423 0.7726672697 -0.3931713972 1.0937389665 0.5004384512 -0.4069344641 1.1109778730 0.8016103076 -0.3266400953 1.0460173059 0.8911123862 -0.4950848534 1.3822804698 0.2864542517 -0.5787431979 1.1706881903 0.2187311657 -0.7250745811 1.2586671766 0.1219266523 -0.6079846279 1.2648227644 0.3471936017 -0.7100197237 1.0991393831 0.2959245273 -0.5977480787 1.1622267049 0.1980030146 -0.4827033561 1.0580562844 0.2424610342 -0.5140253271 1.3125702220 0.5419767032 -0.4113871673 0.6751674513 0.4537552143 -0.5114529741 0.6696178612 0.4493770364 -0.5009024904 0.6696039857 0.4805986102 -0.3833926893 0.6762165522 0.4894284031 -0.3782347072 0.6739713658 0.4984093080 -0.3700981646 0.6802018346 0.5051045808 -0.3666441806 0.6778611773 0.5127464012 -0.3595358607 0.6815299476 0.5256551455 -0.3501001744 0.6791626449 0.5334168171 -0.3429028303 0.6481010890 0.6223888831 -0.4206006319 0.6530437742 0.6269928450 -0.4224273734 0.7113630728 0.6650197888 -0.2951517057 0.7076343053 0.6738136303 -0.3038372244 0.7548796069 0.3901334747 -0.3326260378 0.8064428559 0.2992463061 -0.4265121424 0.8015775083 0.2911443576 -0.4231396566 0.8120294845 0.2992793922 -0.4301347892 0.8074173976 0.2898027567 -0.4268782674 0.8173344015 0.3011605267 -0.4336232671 0.8225959166 0.3050105968 -0.4371369833 0.8280847472 0.3112219186 -0.4408575121 0.8341654673 0.3205879311 -0.4450276670 0.6937785283 0.3211216358 -0.2829440932 0.8406373728 0.3181740005 -0.4491670353 0.9021100487 0.3175186063 -0.3891647246 0.7173995392 0.2447724207 -0.2769803679 0.6770560207 0.1483356168 -0.3104209324 0.7463759603 0.0594876135 -0.2964339095 0.8798086331 0.1190890701 -0.3608116281 0.8937569777 0.1369684725 -0.3699994114 0.9002994099 0.1462857775 -0.3743105098 0.9074297155 0.1503486393 -0.3790459552 1.3878885876 0.1446472782 -0.7304642356 1.3351216003 0.0697332304 -0.7323791918 1.4153009434 0.0904889720 -0.5445348231 1.4027025498 0.0872413213 -0.5346179800 0.9733708004 0.2391229287 -0.3272120486 1.0089222522 0.3487813835 -0.3221571873 1.3274993367 0.6866600202 -0.4733665144 1.3284213926 0.6975736938 -0.4713776482 1.2711207809 0.6079338256 -0.6150492060 1.3681905511 0.6624671007 -0.6105049006 1.3656748199 0.6653411013 -0.6163796924 1.3695652648 0.6713441077 -0.6146573224 1.3003391450 0.7432736310 -0.6291064050 1.0281808808 0.5063294565 -0.6447159927 1.1021958652 0.5041440990 -0.6470902486 1.1084492151 0.5229661060 -0.6427441199 1.1164077600 0.5145968293 -0.6525244607 0.9964924943 0.5480317159 -0.7774957273 1.0024581049 0.5627910344 -0.7808705102 1.0113452793 0.5593842124 -0.7911478605 1.2117309214 0.6409730095 -0.7400478628 1.2405538709 0.4523022215 -0.8136771235 1.2489430352 0.4619386166 -0.8167770289 1.2206597324 0.6428398788 -0.7468479639 1.1282443150 0.7479915805 -0.8318686550 1.2570668700 0.4713155806 -0.8199363039 1.1276571334 0.7330131787 -0.8413941898 1.2303188551 0.6450203147 -0.7543000381 1.1348893839 0.7307287587 -0.8509974231 1.2413206726 0.6477734580 -0.7629412501 1.2846990979 0.5397419305 -0.9175364313 1.2072326046 0.6274917212 -0.9631637717 1.3548286387 0.6484507723 -0.8594543042 1.3594593620 0.6418185984 -0.8731115139 0.8903279515 0.7741827133 -0.7595823853 0.8974774527 0.7751411830 -0.7658946404 1.0363372833 0.1403868847 -0.4021475167 1.0244841070 0.0488172060 -0.3337094641 0.8617562897 0.1622691146 -0.2682085160 0.9376920452 0.0998894025 -0.2552511626 0.9307142858 0.1038622233 -0.2508883501 0.9270287707 0.0946687284 -0.2485833138 0.8558125984 0.0626206502 -0.2276057494 0.7578815047 0.1266213427 -0.5401750553 0.7693690147 0.0856960072 -0.5759668633 0.7773679173 0.1788126662 -0.6066659508 0.7805269612 0.1761524983 -0.6074584853 0.7842758550 0.1788875184 -0.6065303325 0.7875457701 0.1762652884 -0.6072908657 0.7883513589 0.1817126820 -0.6055759225 0.8116012600 0.2055724840 -0.5412459870 0.6884350318 0.9389414088 -0.2841346391 0.7241773473 0.9065620626 -0.4777857666 0.9382527841 0.4799192175 -0.6117408506 1.1546889884 0.5599532285 -0.9877044887 1.1474085493 0.5651418781 -0.9833761619 1.1971427934 0.0542425408 -0.7762681642 1.1754897471 0.0689647001 -0.7331232629 1.1859284938 0.0727280256 -0.7330556643 1.1795893205 0.0751141904 -0.7288534989 1.2731207042 0.0958349558 -0.7927935939 1.2829354778 0.1083790907 -0.7927158748 1.1507066592 0.1764843087 -0.8248887555 1.1559027819 0.1798636917 -0.8255366735 1.4328188417 0.5656718611 -0.8200714666 1.3992267005 0.5688375379 -0.7292218965 1.3849887828 0.4403060247 -0.7856022284 1.3839224838 0.4353693836 -0.7897898441 1.3798644384 0.4335283348 -0.7849465610 1.3251033051 0.3512519758 -0.8450002446 0.8285801813 0.9134125673 -0.5740026927 1.2231195736 0.5890432109 -0.6349067439 0.7864964755 0.9063557102 -0.2930638708 0.7934531830 0.9050666143 -0.2893852540 0.6767604721 0.2912951297 -0.5220875175 0.7575535222 0.2793936209 -0.6194220886 0.8010485411 0.1644120814 -0.2226144791 0.8396144346 0.1993104873 -0.2459835165 0.7513026612 0.2783962979 -0.2729811835 0.9978197719 0.8908922334 -0.2150437452 0.8628701437 0.9326707373 -0.3385167159 1.1937433400 0.1391457610 -0.4235725268 1.0867716101 0.1564879005 -0.4354327879 1.1236997512 0.9047495871 -0.5585353673 1.1002200639 0.9004460909 -0.6323028865 1.2120617869 0.7707835761 -0.3555744260 1.2062921001 0.7769882802 -0.2788105655 0.8783305533 0.8035070566 -0.5472999756 0.9499037450 0.9232297534 -0.5230634243 0.9587130779 0.9229222123 -0.5351523676 0.9285444674 0.9008901285 -0.5499510686 0.5985258186 0.2322224388 -0.4372308257 0.6586164206 0.1491243685 -0.5076839680 1.2905899794 0.8779060398 -0.7546429836 1.3806927381 0.8617308170 -0.7030497775 1.2831774422 0.8819808008 -0.7459868865 1.3754869668 0.8408397888 -0.7002540239 1.3981699033 0.6336898082 -0.6595852209 1.4014106277 0.6379087175 -0.6627751459 1.3928826313 0.3380213905 -0.7665637412 1.1976971327 0.0393026652 -0.6609379662 1.1987544514 0.0334043915 -0.6673057558 1.3012406505 -0.0058755786 -0.7750437944 1.2998391017 -0.0022162125 -0.7656640281 1.0338024696 0.4553076133 -0.2661754984 0.7798311701 0.1499550792 -0.6639411183 0.8534230310 0.3201812123 -0.6353382800 1.3006875717 0.8369755351 -0.8638132976 0.6228927655 0.2162709588 -0.4171897333 1.0658876946 0.4891227966 -0.1920318059 0.9192345711 0.6260980045 -0.0857973040 1.1466620218 0.0906897434 -1.0192098897 1.1488751577 0.0990062286 -1.0103371514 1.1553952077 0.1010036042 -1.0119402069 1.1576359659 0.1061671546 -1.0069570073 1.1603397978 0.1101366241 -1.0037298043 1.1636497230 0.1133042263 -1.0018699475 1.1678015560 0.1158798930 -1.0012591731 1.1819051531 0.0294324621 -0.5924751822 1.1711136566 0.0290204640 -0.5856921630 1.2030171622 0.0327547042 -0.6030045715 1.0942036527 0.0530505550 -0.5613443142 1.2261414477 0.2638805151 -0.9930943265 0.6964117508 0.6455396466 -0.4909495880 0.6866334524 0.6338050555 -0.4922869183 0.8412278464 0.6609004271 -0.5243499911 0.8146661272 0.5291627670 -0.6063634551 0.9052516757 0.4853900343 -0.7216683764 0.8095880206 0.3409662230 -0.2127344938 0.8507456274 0.3192017681 -0.1569162306 0.8090548421 0.3335583198 -0.2086745220 1.0644756117 0.8007621311 -0.2463261862 1.0684721480 0.0469971572 -0.3466733445 1.0528865215 0.0292484564 -0.2854729379 1.0511781747 0.0291245931 -0.2761163847 0.7267058690 0.3998345245 -0.2685779676 0.7226674423 0.4532622331 -0.3182261331 0.7160976769 0.4512761234 -0.3155962954 1.1799121920 -0.0268603364 -0.4466388144 1.0031036502 0.9018583394 -0.5808350793
        </DataArray>
      </Points>
      <Cells>
        <DataArray type="Int32" Name="connectivity" format="ascii">
 0 1 2 3 4 5 6 7 8 9 10 11 12 13 14 15 16 17 18 19 20 21 22 23 24 25 26 27 28 29 30 31 32 33 34 35 36 37 38 39 40 41 42 43 44 45 46 47 48 49 50 51 52 53 54 55 56 57 58 59 60 61 62 63 64 65 66 67 68 69 70 71 72 73 74 75 76 77 78 79 80 81 82 83 84 85 86 87 88 89 90 91 92 93 94 95 96 97 98 99 100 101 102 103 104 105 106 107 108 109 110 111 112 113 114 115 116 117 118 119 120 121 122 123 124 125 126 127 128 129 130 131 132 133 134 135 136 137 138 139 140 141 142 143 144 145 146 147 148 149 150 151 152 153 154 155 156 157 158 159 160 161 162 163 164 165 166 167 168 169 170 171 172 173 174 175 176 177 178 179 180 181 182 183 184 185 186 187 188 189 190 191 192 193 194 195 196 197 198 199 200 201 202 203 204 205 206 207 208 209 210 211 212 213 214 215 216 217 218 219 220 221 222 223 224 225 226 227 228 229 230 231 232 233 234 235 236
        </DataArray>
        <DataArray type="Int32" Name="offsets" format="ascii">
 1 2 3 4 5 6 7 8 9 10 11 12 13 14 15 16 17 18 19 20 21 22 23 24 25 26 27 28 29 30 31 32 33 34 35 36 37 38 39 40 41 42 43 44 45 46 47 48 49 50 51 52 53 54 55 56 57 58 59 60 61 62 63 64 65 66 67 68 69 70 71 72 73 74 75 76 77 78 79 80 81 82 83 84 85 86 87 88 89 90 91 92 93 94 95 96 97 98 99 100 101 102 103 104 105 106 107 108 109 110 111 112 113 114 115 116 117 118 119 120 121 122 123 124 125 126 127 128 129 130 131 132 133 134 135 136 137 138 139 140 141 142 143 144 145 146 147 148 149 150 151 152 153 154 155 156 157 158 159 160 161 162 163 164 165 166 167 168 169 170 171 172 173 174 175 176 177 178 179 180 181 182 183 184 185 186 187 188 189 190 191 192 193 194 195 196 197 198 199 200 201 202 203 204 205 206 207 208 209 210 211 212 213 214 215 216 217 218 219 220 221 222 223 224 225 226 227 228 229 230 231 232 233 234 235 236 237
        </DataArray>
        <DataArray type="UInt8" Name="types" format="ascii">
 1 1 1 1 1 1 1 1 1 1 1 1 1 1 1 1 1 1 1 1 1 1 1 1 1 1 1 1 1 1 1 1 1 1 1 1 1 1 1 1 1 1 1 1 1 1 1 1 1 1 1 1 1 1 1 1 1 1 1 1 1 1 1 1 1 1 1 1 1 1 1 1 1 1 1 1 1 1 1 1 1 1 1 1 1 1 1 1 1 1 1 1 1 1 1 1 1 1 1 1 1 1 1 1 1 1 1 1 1 1 1 1 1 1 1 1 1 1 1 1 1 1 1 1 1 1 1 1 1 1 1 1 1 1 1 1 1 1 1 1 1 1 1 1 1 1 1 1 1 1 1 1 1 1 1 1 1 1 1 1 1 1 1 1 1 1 1 1 1 1 1 1 1 1 1 1 1 1 1 1 1 1 1 1 1 1 1 1 1 1 1 1 1 1 1 1 1 1 1 1 1 1 1 1 1 1 1 1 1 1 1 1 1 1 1 1 1 1 1 1 1 1 1 1 1 1 1 1 1 1 1 1 1 1 1 1 1
        </DataArray>
      </Cells>
      <PointData Scalars="overlap">
        <DataArray type="Float32" Name="overlap" format="ascii">
 0.0001277284 0.0000639638 0.0000717557 0.0000631612 0.0000874547 0.0000503449 0.0001326966 0.0000374717 0.0002320363 0.0004220948 0.0000912801 0.0000144763 0.0000333357 0.0000033566 0.0002929462 0.0002090341 0.0001011522 0.0001287271 0.0003388103 0.0001674313 0.0003262686 0.0001939213 0.0003002918 0.0002568464 0.0000984872 0.0004144585 0.0000516159 0.0001123644 0.0000644573 0.0000449868 0.0000490045 0.0000221578 0.0001052335 0.0002187877 0.0002486891 0.0005384220 0.0000479377 0.0001555140 0.0001048087 0.0000871905 0.0001350645 0.0001761141 0.0003443871 0.0001255748 0.0001764588 0.0000971526 0.0000571722 0.0001082859 0.0001724060 0.0003831180 0.0001984955 0.0000020821 0.0000391350 0.0000319972 0.0000366229 0.0000185739 0.0002089420 0.0000851286 0.0000946479 0.0000137018 0.0000530779 0.0000756009 0.0000906604 0.0000237791 0.0000145336 0.0000932202 0.0000359820 0.0000318058 0.0000438787 0.0000477264 0.0000118450 0.0000393500 0.0000061448 0.0000065536 0.0001037975 0.0000708356 0.0000444517 0.0000664407 0.0000001315 0.0000410384 0.0000256584 0.0000656555 0.0000242321 0.0000814792 0.0000986950 0.0001140634 0.0001008368 0.0000550999 0.0001205028 0.0000322626 0.0000361387 0.0000142067 0.0000479912 0.0000315647 0.0001063844 0.0000556766 0.0000236847 0.0000078741 0.0000081332 0.0001092480 0.0000052599 0.0000132665 0.0000260189 0.0001560048 0.0000013314 0.0000115129 0.0000129443 0.0001394717 0.0000158961 0.0002039830 0.0001757394 0.0000455518 0.0001049918 0.0000400542 0.0001364383 0.0000641275 0.0000746098 0.0000059159 0.0000952093 0.0002297699 0.0000403899 0.0001263489 0.0001727708 0.0005661673 0.0000763827 0.0002416155 0.0001077339 0.0001066272 0.0002285704 0.0001974426 0.0000218611 0.0000245444 0.0001080296 0.0000319378 0.0000480088 0.0000787896 0.0000055794 0.0000556127 0.0000023875 0.0000515543 0.0000995879 0.0001124161 0.0000235888 0.0000145362 0.0000364905 0.0000201291 0.0000023417 0.0000909935 0.0000251988 0.0000114418 0.0000224960 0.0000959816 0.0000613525 0.0000700162 0.0000148127 0.0000372305 0.0000936651 0.0000425684 0.0000154699 0.0001824528 0.0000033065 0.0000563406 0.0000239103 0.0001322893 0.0001058298 0.0001366661 0.0001474585 0.0000304880 0.0000063872 0.0000512034 0.0000592049 0.0001419773 0.0001626364 0.0000180773 0.0000521959 0.0000194314 0.0000537476 0.0000247031 0.0002020083 0.0000361076 0.0000386741 0.0001222043 0.0000165384 0.0000401359 0.0000599424 0.0000733731 0.0000714312 0.0001032627 0.0000012542 0.0000473247 0.0001466278 0.0000016371 0.0000370376 0.0000288979 0.0000056246 0.0000098697 0.0000337557 0.0000511674 0.0000160664 0.0000204453 0.0000604398 0.0000079458 0.0000562714 0.0000451304 0.0000775963 0.0000154032 0.0000671206 0.0000682262 0.0000525269 0.0000000345 0.0000813810 0.0000434684 0.0000211238 0.0000182964 0.0000292545 0.0000394007 0.0000273522 0.0000283355 0.0000155028 0.0000262848 0.0000553109 0.0000409697 0.0000549854 0.0000238697 0.0000143853 0.0000143734 0.0000153128 0.0000082924 0.0000021067 0.0000490807 0.0000004156 0.0000098516 0.0000067513 0.0000160876 0.0000275484 0.0001023111 0.0000418486
        </DataArray>
        <DataArray type="Float32" Name="contact normal" NumberOfComponents="3" format="ascii">
 0.5774927350 -0.1960817694 -0.7924986314 0.5078615394 0.8283404815 0.2364925022 -0.4161723554 0.7738596834 -0.4774324675 -0.5313602053 0.7977256498 -0.2851142227 -0.6318341104 0.0666673961 -0.7722312576 -0.5331629222 -0.0017917299 -0.8460106903 0.1926990572 -0.7562070518 -0.6253142955 -0.6769519290 0.7190557083 -0.1571463465 -0.6264542349 0.7587330574 -0.1785475823 -0.4002422504 -0.9068713276 -0.1318731820 -0.3872443984 -0.8270822041 -0.4074025081 -0.3889432203 0.4578240750 0.7994499908 0.4833848186 -0.5482199793 0.6824910046 0.4890415070 -0.5412677167 0.6840085257 0.5303265772 -0.4871525623 0.6938559667 -0.6957454629 0.0231898314 -0.7179139800 -0.1910034699 -0.1073519080 0.9757014104 -0.8790812751 0.4035671330 -0.2536723890 0.9079023432 -0.2733285564 0.3178125791 0.9348301051 -0.2669749963 0.2341303611 -0.9952865913 -0.0840595646 -0.0483589778 -0.9914284754 -0.1056316749 -0.0768864579 -0.9424333805 0.2588063230 0.2117512939 -0.8791641665 0.4764708799 -0.0067726632 0.9267882320 -0.0392221417 0.3735307171 0.8887299233 -0.1532075681 0.4320724065 0.0994238349 -0.9841999210 0.1465108067 0.4598782345 0.8857697264 -0.0626418493 -0.5816510396 -0.4647702167 0.6675857351 -0.4188496305 -0.6943306819 0.5852092713 0.2291219717 0.5565019592 -0.7986292579 0.2580510951 0.5182341796 -0.8153790330 -0.5490888401 -0.0737039832 -0.8325077589 -0.7042049290 0.6965380497 0.1375869296 -0.4159905383 0.6663070463 0.6188592668 -0.3517128990 0.6814267015 0.6418377421 -0.3874625481 0.6907933794 0.6104729976 0.8199071833 0.1352577483 0.5562890906 0.0707324884 -0.7177721660 0.6926759941 0.2495622247 -0.8540193659 -0.4564752115 0.2566798301 -0.8489083144 -0.4620282877 0.3566084704 -0.7993980025 -0.4835216980 0.3385993530 -0.8092652900 -0.4800418405 0.3261174155 -0.8158534511 -0.4775254733 0.6669245017 -0.4708026948 0.5775435322 -0.7431793149 0.3047137950 -0.5956794516 -0.7399464117 0.2829730048 -0.6102504293 -0.7339173318 0.3493565686 -0.5825078008 -0.7360897317 0.3148263262 -0.5992130600 0.4256175690 0.5054873005 0.7505546442 -0.2234608143 -0.4123669948 -0.8831866881 -0.7362181444 0.3104387851 -0.6013406726 -0.7355968813 0.3177296242 -0.5982851445 0.3800303762 -0.9242027810 0.0377641717 -0.8642578819 0.4073785715 -0.2951288074 -0.6242042899 -0.1484971943 -0.7670186359 0.3526895408 -0.7678984933 0.5347354409 0.7529688237 -0.4390642769 0.4901637596 0.1843360078 0.6192554233 0.7632450176 -0.2100759460 0.8776410515 -0.4308297595 -0.3950075570 -0.7539004950 0.5249791173 0.7028679815 -0.3337975878 0.6281367454 -0.2785876444 0.6196142140 -0.7338032094 0.8981546950 0.3805856256 -0.2201652231 -0.6466061786 -0.7559265615 -0.1023498093 0.1046195926 0.9310385210 0.3496026506 -0.0951168967 0.6998961379 0.7078828802 -0.2524711665 0.6176481708 -0.7448281998 -0.2028897237 0.6156757093 -0.7614323220 -0.2524867414 0.6176485275 -0.7448226245 -0.2523921102 0.6176463594 -0.7448564945 -0.2524910010 0.6176486249 -0.7448210997 -0.2524910626 0.6176486263 -0.7448210776 -0.2525903329 0.6176508940 -0.7447855375 0.6548776745 -0.5637683984 0.5032896029 0.6571741148 -0.5569904055 0.5078226768 -0.3845935627 -0.8942600792 -0.2288814153 0.1843723988 -0.5861453655 -0.7889489394 -0.2905192677 -0.2688729989 -0.9183168655 0.5403877616 0.0254866356 0.8410300223 0.5406691331 0.0250600823 0.8408619868 0.5407884785 0.0248794694 0.8407906003 0.5411877787 0.0242731850 0.8405513671 0.5410215907 0.0245257380 0.8406510135 0.5411023870 0.0244141501 0.8406022579 0.5411149380 0.0246477716 0.8405873608 0.5407598977 0.0252541244 0.8407978130 -0.5757632664 -0.2052825930 -0.7914263820 0.5420872687 0.0256418467 0.8399308834 -0.5165518027 -0.1035430572 -0.8499723939 -0.2581183422 -0.3010781165 -0.9180015736 0.9250763422 0.3535048523 -0.1388095116 -0.2224480497 0.4204951445 -0.8796025799 -0.5398549612 -0.0198046805 -0.8415250415 -0.5402213237 -0.0161258982 -0.8413684549 -0.5577273565 0.0136035427 -0.8299127300 -0.5404635757 -0.0151385622 -0.8412312092 0.5423776421 -0.7893901088 0.2875582540 0.8338585936 0.0776238057 0.5464928094 -0.5565897096 0.4867721579 -0.6732464344 -0.6439259152 0.4055317833 -0.6487706748 0.0034215193 0.7064241879 0.7077804461 -0.4156220605 -0.9053405988 0.0872737251 0.3264976552 0.1201145899 -0.9375349415 0.3495186848 0.1816231370 -0.9191570731 0.8567205992 0.5106265831 0.0727345005 -0.7585965725 0.3746572658 0.5330695765 -0.7608141970 0.3729670244 0.5310907232 -0.7557914128 0.3774595589 0.5350734732 0.5294818250 -0.7067252754 0.4692423490 0.2554186626 0.8890631342 -0.3799053173 -0.8378693601 -0.4119813353 -0.3581149463 -0.3287883124 0.6080761336 -0.7225937042 -0.2949483891 0.5633482734 -0.7717798719 0.6956658743 -0.1168670398 0.7087955180 0.6956610009 -0.1168359176 0.7088054319 0.7538893361 -0.1648781505 0.6359764653 -0.4567159521 -0.5027416407 -0.7339355434 -0.7142166183 0.4394669273 -0.5447599856 -0.7142208448 0.4394774234 -0.5447459767 -0.4568160160 -0.5025538615 -0.7340018691 0.8175703616 -0.0006710644 0.5758283195 -0.7142245875 0.4394867176 -0.5447335713 0.2112092991 -0.8956426637 0.3914266866 -0.4571071168 -0.5022715675 -0.7340138665 0.2763909733 -0.9226946760 0.2687797699 -0.4580599738 -0.5022907619 -0.7334064705 -0.6618177854 0.5140783856 0.5456378216 0.6693692710 0.2112416563 0.7122652186 -0.8537698401 0.5075221777 0.1161821815 -0.6052655536 -0.1716424716 -0.7772981870 -0.5133120296 -0.5836264181 -0.6291986685 -0.5033500303 -0.6035476184 -0.6183599432 -0.4210752714 0.4248328020 0.8013817481 -0.8427790720 0.5176839049 -0.1474001711 -0.0655172636 -0.4839713324 -0.8726277772 -0.4560587334 -0.0183819806 -0.8897598184 -0.5056666569 0.0355697270 -0.8619953751 -0.5406719568 -0.0211913502 -0.8409665640 0.7047276535 0.2031345301 -0.6797759169 -0.0696176058 0.0859984729 -0.9938599759 0.2901626840 0.9479311432 0.1312713398 -0.0509204284 -0.2813871419 0.9582423422 -0.0474517441 -0.3048536921 0.9512163573 -0.0263827590 -0.2874517490 0.9574316905 -0.0181597587 -0.2968235959 0.9547596431 -0.0216201954 -0.2924451324 0.9560378715 -0.2206357278 -0.4051433990 -0.8872309180 -0.3611872449 0.3687501565 -0.8564853158 -0.6828781499 0.4277836254 0.5921812241 0.9798937946 0.1719047077 -0.1012764674 0.6497006754 0.7248157876 0.2291966546 0.6072261249 0.7729514282 0.1839090069 0.1343444739 0.9272687083 0.3494628807 -0.3238853334 0.6473913603 -0.6899150074 -0.2574337255 0.6705198926 -0.6957951930 -0.2826778039 0.6633383199 -0.6928748318 -0.7610110766 0.5489978508 -0.3456349245 -0.7413793870 0.5868834336 -0.3254603508 0.3902162751 -0.6283621965 0.6729726656 0.3929992469 -0.6187665487 0.6802055206 -0.6586688896 -0.6961056318 0.2856435599 0.1060159410 -0.6618172349 -0.7421310988 -0.6768424466 0.7326813747 -0.0711498820 -0.7077859272 0.4617376095 -0.5346376915 -0.8020856119 0.3704722517 -0.4684111249 -0.6246474959 0.7600672898 0.1792016203 -0.7459459783 -0.5449126207 0.3829292796 -0.2762373691 0.5783660590 -0.7675842740 -0.3849646403 0.3586309116 0.8504034895 -0.3848665961 0.3531244477 0.8527489828 0.7263114499 0.6826718005 -0.0801928336 -0.6083470596 0.2305881661 0.7594359438 -0.5312800685 -0.2412584460 -0.8121181263 -0.2362322098 -0.2694775120 -0.9335824621 0.1289157239 -0.6021441917 -0.7879105968 -0.1399599040 -0.0766392637 -0.9871867344 0.9249922515 0.3158198712 0.2112987070 -0.6341132609 0.5781356789 -0.5134778565 0.8562342207 -0.3249001839 0.4016252354 0.5295158472 -0.6208260934 -0.5780898973 0.9718356432 -0.1299566203 0.1965877904 0.7741041489 0.0462272166 0.6313682056 0.0128998221 -0.2374335161 -0.9713181353 -0.1923503053 0.8929788721 -0.4069276276 -0.9227035477 -0.0253509805 -0.3846758256 -0.8597999736 0.1974828931 -0.4708975603 0.3538985389 -0.3829905895 0.8532725429 -0.4051962762 0.4694362834 -0.7845033802 -0.4041666271 0.3244326108 -0.8552150715 0.7264707224 -0.4988702856 0.4726190090 -0.8662504109 0.1566022811 -0.4744322408 0.7163518505 0.1074404068 0.6894175696 -0.8383721100 0.1406295164 -0.5266455585 0.1271456621 -0.6667047109 -0.7343969016 0.1310944498 -0.6643506965 -0.7358344904 -0.3451608053 0.9381676403 -0.0265611964 -0.4910742773 0.4620019063 -0.7385122157 -0.4960002916 0.4474876491 -0.7441360861 -0.1566280845 0.8293429310 -0.5363375299 -0.1608616670 0.8567288229 -0.4900400474 -0.1530995976 -0.9829809484 0.1015330896 0.3888424791 0.7911910317 0.4720363098 -0.5493001249 -0.8253105088 0.1308890250 0.8493971872 0.1387067516 -0.5092002115 0.8804607073 0.1919334809 -0.4335325614 -0.6980035458 0.3928591657 -0.5987092166 -0.2912821647 0.5763478029 -0.7635299016 0.3643110140 -0.7233752371 0.5865200350 0.3643981434 -0.7231581610 0.5867335574 0.3644895414 -0.7231760016 0.5866547919 0.3644644292 -0.7231539574 0.5866975658 0.3644544340 -0.7231511523 0.5867072323 0.3644673271 -0.7231537118 0.5866960683 0.3645047242 -0.7231611127 0.5866637121 -0.3453488578 0.8245363131 -0.4481897307 -0.3011943588 0.9154100883 -0.2670324484 -0.2407589169 0.9388065493 -0.2463278444 0.8360948220 -0.4609089385 0.2975036116 0.8390833992 -0.3888614285 -0.3804284934 0.5787721487 -0.2622827086 -0.7721596860 0.4854715108 -0.4322200550 -0.7599363369 -0.5226544523 -0.8198408695 0.2338659279 -0.4862085886 0.8580681160 -0.1652885860 0.2276265326 -0.2064912836 0.9516026016 0.6743062458 0.3003070949 0.6746308143 0.0101313294 0.7834954399 -0.6213149377 0.2436290691 0.2482777931 0.9375516061 -0.5112120564 -0.0979803316 -0.8538513266 -0.8769913257 0.4191293604 0.2349825397 -0.8817456459 0.4358246449 -0.1805034481 -0.8850402719 0.4475081685 -0.1282191724 -0.3268822831 -0.7081964434 0.6257841245 -0.4175188718 0.5561915372 -0.7185603424 -0.4598990743 0.5423978178 -0.7030629053 -0.0523902245 0.1737726961 -0.9833912316 0.3680020620 -0.3339699864 0.8677779270
        </DataArray>
        <DataArray type="Float32" Name="contact force" NumberOfComponents="3" format="ascii">