<?xml version="1.0"?>
<VTKFile type="UnstructuredGrid" version="0.1" byte_order="LittleEndian">
  <UnstructuredGrid>
    <FieldData>
      <DataArray type="Float32" Name="TIME"  NumberOfTuples="1" format="ascii"> 0.0500000000 </DataArray>
      <DataArray type="Int32"   Name="STEP"  NumberOfTuples="1" format="ascii"> 5000 </DataArray>
    </FieldData>
    <Piece NumberOfPoints="279" NumberOfCells="279">
      <Points>
        <DataArray type="Float32" NumberOfComponents="3" format="ascii">
 0.4249314570 0.2068764872 0.0645973317 0.5300650411 0.1286891349 0.0287430751 0.5051274046 0.1472967653 0.1712686814 0.6404009406 0.1083073821 0.1011346109 0.5396560632 0.3647165030 0.1927238683 0.5529049065 0.3591221841 0.1959507248 0.5679332056 0.4473096506 0.1826713107 0.7522637338 0.1787760644 0.1344517427 0.7585740111 0.1856278316 0.1388712895 0.6781863540 0.4551830727 0.1582341016 0.8496808812 0.2322057472 0.1038093353 0.7817055626 0.3734637653 0.0257445221 0.7954141194 0.3704005524 0.0260871293 0.8169164169 0.3858577139 0.0318407177 0.8043272048 0.3963712480 0.2128193093 0.8177405851 0.3880657316 0.2149782593 0.8970705627 0.3687006871 0.1610948783 0.7488938365 0.3244555372 0.6614647196 0.7715343708 0.2991972340 0.6470381505 0.7859800463 0.3638383111 0.5509268657 0.8677098744 0.6051900954 0.5000170298 0.9117804426 0.5555854910 0.5476062483 0.8933139371 0.6065310906 0.4835960612 0.9261882691 0.5445858113 0.5347167659 0.9417060179 0.3093057079 0.5142807411 0.9348941336 0.3342642313 0.5232291694 0.9466437709 0.4740299175 0.4396748511 0.2426988193 0.7998645942 0.0300736366 0.2550242359 0.8174529334 0.0801071269 0.0745152348 0.9091656974 0.0984280176 0.1544172192 0.7224167233 0.0703151703 0.0388531677 0.8886404881 0.1549149864 0.0622883309 0.7985591071 0.1476348501 0.1717484136 0.7199199612 0.1341871123 0.1847250972 0.8265411188 0.1844986045 0.5696732844 0.7614242651 0.2343767451 0.6837109192 0.7584847798 0.2506355302 0.6518745492 0.7389559083 0.1509286315 0.7064425119 0.8129430665 0.2685245748 0.6574405332 0.7424922807 0.1509750531 0.6559618097 0.7440298156 0.1449175008 0.6050498082 0.8504761511 0.2335315871 0.6094870214 0.8548583685 0.2306467100 0.5208460085 0.7623331686 0.0872532012 0.7326549976 0.8581642917 0.2082623771 0.5647886769 0.8549593670 0.1501837197 0.5655585063 0.8555697885 0.1428034636 0.1730954052 0.4806743745 0.3124134968 0.1676793390 0.4846408553 0.4303339908 0.1372372373 0.6603752713 0.2322114925 0.0843716744 0.6890242525 0.2524164917 0.1610298881 0.6613586426 0.2301914390 0.2576866744 0.4521922584 0.3335398109 0.2645017074 0.5526795576 0.4413159678 0.2908045785 0.4616493236 0.4074776463 0.2909649771 0.5654615402 0.4411096481 0.3086584928 0.4589635180 0.2700879499 0.1181996509 0.7732576802 0.3968631710 0.2713414598 0.7854244724 0.2443636535 0.4240566800 0.5343056836 0.4052849604 0.4308341372 0.5455253684 0.4093769047 0.2459975848 0.8875721251 0.3603848833 0.3711042701 0.8402146713 0.4375126120 0.3884325023 0.8571221428 0.4362374059 0.4440709219 0.9114184298 0.2637886990 0.5616639374 0.7791851688 0.4505253726 0.5370958939 0.0941809080 0.3184032823 0.6976035547 0.9107461274 0.3197189996 0.7119576626 0.2412460081 0.2711331841 0.6923418547 0.1618194200 0.4264493467 0.7639857536 0.3793317590 0.3328962750 0.7707502504 0.3872506622 0.3412132379 0.5691201771 0.3189593332 0.3001494889 0.5335522717 0.2357534223 0.4366151193 0.4819341739 0.2672352738 0.3358582125 0.4709109534 0.3273215180 0.4927063760 0.4582174932 0.3355233882 0.4942977253 0.3861166795 0.4139411235 0.4328847320 0.5794878888 0.5971952775 0.5517421879 0.2078584105 0.4386418807 0.0414770818 0.1965242119 0.4344529752 0.0454232507 0.1117253424 0.4730322906 0.1235083903 0.1124322429 0.4828022396 0.1307431275 0.1048234723 0.4920202023 0.1337486379 0.1065376645 0.4995244490 0.1397756801 0.0996288473 0.5073341664 0.1421595566 0.0951212499 0.5211346781 0.1497986222 0.0881254862 0.5290635119 0.1522156911 0.1259610360 0.6052421182 0.0632112846 0.1147112390 0.6041657728 0.0641168638 0.1304841486 0.6099800407 0.0649153782 0.1197553779 0.6091435865 0.0656884174 0.1243973848 0.6141055463 0.0673630149 0.1130234341 0.6138541662 0.0684774818 0.0731706719 0.6660806536 0.1927027213 0.0765411119 0.6738780868 0.1829834142 0.1369277730 0.3952542089 0.2296894780 0.2422592584 0.3041077601 0.2116226297 0.2366431903 0.2957934663 0.2114840810 0.2487526149 0.3044687378 0.2130513772 0.2293826491 0.2901873416 0.2106012533 0.2434295493 0.2948078362 0.2131738685 0.2549086587 0.3066445420 0.2141556456 0.2610049853 0.3107688554 0.2149788836 0.2673511428 0.3172466367 0.2155399639 0.2743563822 0.3268865264 0.2158341513 0.0603638027 0.3238229311 0.2291821092 0.2818968028 0.3248740903 0.2178189201 0.2734416113 0.3270066660 0.3026383791 0.2819652967 0.3343861094 0.3032030809 0.0744429261 0.2508161275 0.2590897814 0.0724879407 0.1488057490 0.2186464594 0.1130616858 0.0685445629 0.2879750759 0.2422863330 0.1318180808 0.3293322365 0.2508900942 0.1370058529 0.3306056034 0.2667740450 0.1555656186 0.3319771934 0.2742023436 0.1651954270 0.3325131109 0.2824726571 0.1696404169 0.3337842289 0.7587169207 0.1533174693 0.5864345779 0.7547695568 0.1421796084 0.5822177264 0.2871472713 0.2698260373 0.4922108903 0.2973094759 0.2800700015 0.4918354155 0.2898131995 0.2699701435 0.4027600958 0.2535000375 0.3449986152 0.3585326830 0.3102869713 0.3802889134 0.4172963555 0.6312417302 0.7387869241 0.5032702040 0.6934244609 0.6467048628 0.3724276146 0.7600872077 0.7118772321 0.4320448758 0.7150689516 0.7763396117 0.3661876608 0.7224930153 0.7765091776 0.3653252815 0.7217495642 0.7829777514 0.3687465479 0.5482274632 0.5179045860 0.1921828043 0.6017061507 0.5231976758 0.2432197680 0.6024921085 0.5427727560 0.2484699087 0.6201095274 0.5473998567 0.0723709003 0.6263327383 0.5624355243 0.0724916555 0.6399710213 0.5592833538 0.0720410204 0.7413837363 0.6640455961 0.2398844279 0.8187504513 0.4748455606 0.2315351793 0.8265939782 0.4850595063 0.2341817077 0.7524361967 0.6663663880 0.2412657953 0.8343009930 0.4949849284 0.2366295625 0.7588954368 0.7526818780 0.1025654832 0.7644572172 0.6690305708 0.2426746683 0.7782522281 0.6723230322 0.2441412908 0.8026681075 0.7666063544 0.1503997261 0.9217941204 0.5592827522 0.1801490192 0.8981745708 0.6355042957 0.0830715305 0.9266182922 0.6781384001 0.2573667278 0.9125454312 0.7262763631 0.2223418117 0.9397157275 0.6711686729 0.2518816582 0.3894236095 0.1711020999 0.4103261130 0.3343222456 0.0835334996 0.4603718429 0.1711749030 0.1840304609 0.3771505114 0.2163916292 0.1306381005 0.4473594127 0.1403152164 0.0871906826 0.4129814124 0.2543423784 0.1550128713 0.0654033799 0.3212956586 0.0797094702 0.1020328728 0.3626901991 0.1665144276 0.0876157924 0.3618877128 0.1720519726 0.0887338184 0.3651329987 0.1699360383 0.0911016022 0.3681565409 0.1736435089 0.0952256946 0.3291765659 0.2037046592 0.1458540957 0.3370661517 0.2091493271 0.1502568463 0.8808083888 0.5610877445 0.0371684325 0.8725462930 0.5658322640 0.0343573491 0.8789238859 0.5640348822 0.0323829471 0.7712314771 0.0774259093 0.2736880417 0.7320720461 0.0975289936 0.2936570690 0.7245814110 0.0995369230 0.2918170831 0.8351867750 0.1252518996 0.3110966439 0.8417035791 0.1386939954 0.3166230743 0.7707501189 0.1909240623 0.1925739412 0.7747670101 0.1947560777 0.1954060016 0.3426324573 0.1901499558 0.5230920799 0.3550263041 0.1905660131 0.5248412813 0.9549019879 0.6061706716 0.3499036863 0.8663770600 0.6117699752 0.3889787153 0.8999219903 0.4790542917 0.3547558474 0.9022761482 0.4737937856 0.3516670174 0.8960280705 0.4718707176 0.3523858015 0.9027500619 0.3807555881 0.2814325204 0.3482053901 0.9043567136 0.0616734176 0.8006637729 0.6605728758 0.3483886890 0.6844170041 0.6154959987 0.3287873495 0.6751823242 0.6201160607 0.3272489461 0.1206367520 0.9131862155 0.2263955502 0.2202761255 0.2767579272 0.0542278550 0.3467206955 0.2668786210 0.0456550519 0.1971584148 0.4195239819 0.3196721386 0.3175441389 0.4047436222 0.3792883872 0.0960305740 0.1830317664 0.3656875148 0.1388968497 0.2199911312 0.3726060368 0.0863846292 0.2774918863 0.2862500365 0.2104147731 0.9246053399 0.4246104500 0.2037147091 0.9442409120 0.2381368641 0.4844255232 0.2607493545 0.5121135256 0.5160295573 0.1899107670 0.5094048185 0.4480760599 0.1900999012 0.4208073676 0.5441649391 0.9293904699 0.2725574881 0.5806804600 0.9172360107 0.2052157857 0.9299412748 0.1575226316 0.2619966025 0.9336752029 0.1654430421 0.3039038415 0.9202325867 0.3918039640 0.3531725676 0.4636663775 0.8176878311 0.4927170496 0.4153760428 0.8569372097 0.5390771239 0.1104460972 0.8171102545 0.4214457816 0.1069469728 0.8152606273 0.4207377676 0.3666612747 0.8040866342 0.1191441733 0.3963942742 0.9318230969 0.1725262210 0.4111935228 0.9316185733 0.1703749194 0.4012736740 0.9057201215 0.1412843774 0.1062929660 0.2156583649 0.0648107030 0.2006403632 0.1346181676 0.0680960930 0.8012504496 0.9059890885 0.2577764341 0.8277114400 0.9024688051 0.3594433881 0.8225979204 0.8813816638 0.3601755923 0.8142217508 0.6805941930 0.4289800652 0.8186614191 0.6849060813 0.4285628173 0.8942212943 0.3796340052 0.3856257568 0.0647074038 0.1016501922 0.4574174059 0.1126488526 0.2208286601 0.3810226336 0.6896376204 0.0704032667 0.3563011332 0.6950646646 0.0642345910 0.3533016961 0.8756819241 0.1925549561 0.3658445410 0.8663764564 0.1970165843 0.3646679172 0.8711107916 0.0358119056 0.3127450090 0.8648731314 0.0294159700 0.3166390071 0.8445943980 0.0283490198 0.3553010443 0.8368230596 0.0324438760 0.3604169645 0.2827740319 0.4923694117 0.4659346463 0.3970954066 0.1375094935 0.0451728303 0.4240878507 0.3159047758 0.0968805432 0.8859825279 0.8594553185 0.1963841755 0.8890466735 0.8512335332 0.1902298595 0.8235129392 0.8790261132 0.1457791741 0.8216259925 0.8849039725 0.1501069184 0.8177677906 0.8876892522 0.1517729078 0.8196678830 0.8909549124 0.1545422279 0.8138911628 0.8905706241 0.1535281855 0.8156261411 0.8940247975 0.1563896092 0.8114058653 0.8974828349 0.1585325790 0.1093492474 0.2036392507 0.0980654479 0.0717457195 0.6620254186 0.4910963893 0.9095810286 0.1045163022 0.0745487639 0.9098851115 0.1435583955 0.1082500832 0.9078342448 0.1181975256 0.0859780083 0.9102311173 0.1212061834 0.0890516302 0.9097068155 0.1284500730 0.0951893737 0.6298413302 0.0632554679 0.3937874704 0.6174624662 0.0622006187 0.3909077119 0.5457375988 0.0798999237 0.3505885186 0.9412891755 0.2744171177 0.1192606017 0.9270217293 0.2778282912 0.1195958381 0.2031335603 0.6325478568 0.0478228451 0.3278216618 0.6602795228 0.1253690248 0.3710255216 0.5213571126 0.0651738886 0.9255083944 0.4582457879 0.1162054781 0.5179908974 0.4795320511 0.0542481362 0.1445566243 0.4929175938 0.4488406873 0.1367248569 0.4887226447 0.4521972983 0.1207868043 0.4920689056 0.4440292675 0.0902213189 0.3601647495 0.3575872050 0.0793354278 0.3463759554 0.4281119165 0.0842818037 0.3413361539 0.4274920567 0.0954008445 0.3509096645 0.3607417291 0.2816835281 0.8394801586 0.4607972259 0.2785479867 0.8686161680 0.4517359084 0.2924909330 0.8802783693 0.4545555479 0.3744791561 0.0852855868 0.4825054570 0.3204216584 0.0699720610 0.5163778130 0.3183599899 0.0714766375 0.5186041179 0.3092705539 0.0717320344 0.5246509727 0.0712723958 0.4061401525 0.2532284877 0.1026572459 0.4555761938 0.2095625147 0.0962374907 0.4531028376 0.2069754576 0.5253105791 0.0168627036 0.5004976386 0.4813635312 0.9184267911 0.1762388903 0.4756035340 0.9124413073 0.1724701741
        </DataArray>
      </Points>
      <Cells>
        <DataArray type="Int32" Name="connectivity" format="ascii">
 0 1 2 3 4 5 6 7 8 9 10 11 12 13 14 15 16 17 18 19 20 21 22 23 24 25 26 27 28 29 30 31 32 33 34 35 36 37 38 39 40 41 42 43 44 45 46 47 48 49 50 51 52 53 54 55 56 57 58 59 60 61 62 63 64 65 66 67 68 69 70 71 72 73 74 75 76 77 78 79 80 81 82 83 84 85 86 87 88 89 90 91 92 93 94 95 96 97 98 99 100 101 102 103 104 105 106 107 108 109 110 111 112 113 114 115 116 117 118 119 120 121 122 123 124 125 126 127 128 129 130 131 132 133 134 135 136 137 138 139 140 141 142 143 144 145 146 147 148 149 150 151 152 153 154 155 156 157 158 159 160 161 162 163 164 165 166 167 168 169 170 171 172 173 174 175 176 177 178 179 180 181 182 183 184 185 186 187 188 189 190 191 192 193 194 195 196 197 198 199 200 201 202 203 204 205 206 207 208 209 210 211 212 213 214 215 216 217 218 219 220 221 222 223 224 225 226 227 228 229 230 231 232 233 234 235 236 237 238 239 240 241 242 243 244 245 246 247 248 249 250 251 252 253 254 255 256 257 258 259 260 261 262 263 264 265 266 267 268 269 270 271 272 273 274 275 276 277 278
        </DataArray>
        <DataArray type="Int32" Name="offsets" format="ascii">
 1 2 3 4 5 6 7 8 9 10 11 12 13 14 15 16 17 18 19 20 21 22 23 24 25 26 27 28 29 30 31 32 33 34 35 36 37 38 39 40 41 42 43 44 45 46 47 48 49 50 51 52 53 54 55 56 57 58 59 60 61 62 63 64 65 66 67 68 69 70 71 72 73 74 75 76 77 78 79 80 81 82 83 84 85 86 87 88 89 90 91 92 93 94 95 96 97 98 99 100 101 102 103 104 105 106 107 108 109 110 111 112 113 114 115 116 117 118 119 120 121 122 123 124 125 126 127 128 129 130 131 132 133 134 135 136 137 138 139 140 141 142 143 144 145 146 147 148 149 150 151 152 153 154 155 156 157 158 159 160 161 162 163 164 165 166 167 168 169 170 171 172 173 174 175 176 177 178 179 180 181 182 183 184 185 186 187 188 189 190 191 192 193 194 195 196 197 198 199 200 201 202 203 204 205 206 207 208 209 210 211 212 213 214 215 216 217 218 219 220 221 222 223 224 225 226 227 228 229 230 231 232 233 234 235 236 237 238 239 240 241 242 243 244 245 246 247 248 249 250 251 252 253 254 255 256 257 258 259 260 261 262 263 264 265 266 267 268 269 270 271 272 273 274 275 276 277 278 279
        </DataArray>
        <DataArray type="UInt8" Name="types" format="ascii">
 1 1 1 1 1 1 1 1 1 1 1 1 1 1 1 1 1 1 1 1 1 1 1 1 1 1 1 1 1 1 1 1 1 1 1 1 1 1 1 1 1 1 1 1 1 1 1 1 1 1 1 1 1 1 1 1 1 1 1 1 1 1 1 1 1 1 1 1 1 1 1 1 1 1 1 1 1 1 1 1 1 1 1 1 1 1 1 1 1 1 1 1 1 1 1 1 1 1 1 1 1 1 1 1 1 1 1 1 1 1 1 1 1 1 1 1 1 1 1 1 1 1 1 1 1 1 1 1 1 1 1 1 1 1 1 1 1 1 1 1 1 1 1 1 1 1 1 1 1 1 1 1 1 1 1 1 1 1 1 1 1 1 1 1 1 1 1 1 1 1 1 1 1 1 1 1 1 1 1 1 1 1 1 1 1 1 1 1 1 1 1 1 1 1 1 1 1 1 1 1 1 1 1 1 1 1 1 1 1 1 1 1 1 1 1 1 1 1 1 1 1 1 1 1 1 1 1 1 1 1 1 1 1 1 1 1 1 1 1 1 1 1 1 1 1 1 1 1 1 1 1 1 1 1 1 1 1 1 1 1 1 1 1 1 1 1 1 1 1 1 1 1 1 1 1 1 1 1 1
        </DataArray>
      </Cells>
      <PointData Scalars="overlap">
        <DataArray type="Float32" Name="overlap" format="ascii">
 0.0002100762 0.0000066136 0.0001473036 0.0000145456 0.0000737429 0.0000205930 0.0000004763 0.0000426138 0.0002401221 0.0002461433 0.0000931976 0.0000598774 0.0000016966 0.0002494428 0.0000140548 0.0002182903 0.0000585002 0.0000140517 0.0000119857 0.0000751198 0.0000016159 0.0000437952 0.0000352351 0.0000352262 0.0000389649 0.0000131532 0.0000906618 0.0000642409 0.0001900683 0.0000867206 0.0001583648 0.0000034270 0.0000481126 0.0001822291 0.0000373339 0.0001681977 0.0000674808 0.0000289124 0.0001016846 0.0000837848 0.0001589729 0.0000299136 0.0000202993 0.0001191072 0.0000309214 0.0000388470 0.0001524259 0.0000551686 0.0000858496 0.0002203101 0.0000285171 0.0000292517 0.0000368780 0.0000043647 0.0000434478 0.0000668403 0.0002447702 0.0001694445 0.0000196541 0.0001422235 0.0000427122 0.0000986070 0.0001657513 0.0000352760 0.0002478925 0.0000623799 0.0000824425 0.0000046705 0.0001415951 0.0000321666 0.0000229007 0.0001936145 0.0000611460 0.0000593374 0.0000818400 0.0000340694 0.0000337813 0.0000115830 0.0000310979 0.0000613939 0.0001031354 0.0000286653 0.0000264235 0.0000478622 0.0000070318 0.0000425109 0.0000122084 0.0000097685 0.0000763106 0.0000604911 0.0000295472 0.0002611607 0.0002049981 0.0001216940 0.0000424449 0.0000270052 0.0000474209 0.0000508775 0.0000383569 0.0000715488 0.0000159366 0.0000327133 0.0000837207 0.0000974555 0.0001093900 0.0000926214 0.0000552833 0.0001072025 0.0000145568 0.0000294959 0.0000328384 0.0000225578 0.0000488974 0.0000037741 0.0000353958 0.0001030275 0.0000412416 0.0000124717 0.0000018783 0.0000045148 0.0000052228 0.0000354379 0.0000285059 0.0000477179 0.0000139783 0.0000229902 0.0000007585 0.0000112152 0.0000141302 0.0000081381 0.0000140279 0.0000064445 0.0000273412 0.0000037591 0.0000971671 0.0000175192 0.0000229807 0.0000062262 0.0000426991 0.0001668209 0.0000200789 0.0000997613 0.0001201743 0.0000330889 0.0000368605 0.0001430511 0.0000191601 0.0001937528 0.0000061354 0.0000143334 0.0000166338 0.0000269775 0.0000563428 0.0000590776 0.0000265419 0.0000489166 0.0000252103 0.0000380390 0.0000037816 0.0000129642 0.0000438311 0.0000114844 0.0000481159 0.0000273293 0.0000036467 0.0000982278 0.0000066148 0.0000296434 0.0000154533 0.0000558976 0.0000558899 0.0000316016 0.0002246043 0.0000474736 0.0000073972 0.0000022226 0.0000039176 0.0000188403 0.0000394842 0.0000394886 0.0000594779 0.0000497493 0.0000560824 0.0000784121 0.0000050172 0.0000113799 0.0000174134 0.0000525265 0.0000757468 0.0000287139 0.0000077141 0.0000212438 0.0000540950 0.0000194564 0.0000670347 0.0000068029 0.0000023076 0.0000311876 0.0000140804 0.0000227581 0.0000126724 0.0000113928 0.0000188269 0.0000326849 0.0000195728 0.0000295790 0.0000089561 0.0000096558 0.0000125559 0.0000388988 0.0000884381 0.0000147073 0.0000206348 0.0000111393 0.0000701586 0.0000087038 0.0000368272 0.0000060854 0.0000102929 0.0000234835 0.0000106375 0.0000327715 0.0000260853 0.0000216648 0.0000048898 0.0000267603 0.0000007193 0.0000077246 0.0000051189 0.0000393978 0.0000038400 0.0000039292 0.0000050678 0.0000109895 0.0000504156 0.0000028215 0.0000369854 0.0000459889 0.0000197538 0.0000225927 0.0000438951 0.0000348051 0.0000125116 0.0000213868 0.0000198988 0.0000209112 0.0000019637 0.0000396857 0.0000288355 0.0000240451 0.0000249870 0.0000478994 0.0000019958 0.0000163318 0.0000274162 0.0000199651 0.0000320986 0.0000046459 0.0000076784 0.0000136639 0.0000016364 0.0000060509 0.0000391570 0.0000051205 0.0000686261 0.0000080929 0.0000205181 0.0000287987 0.0000033773 0.0000206379 0.0000086882 0.0000067411 0.0000078915 0.0000204123 0.0000163571 0.0000413459 0.0000171045 0.0000001511 0.0001057169
        </DataArray>
        <DataArray type="Float32" Name="contact normal" NumberOfComponents="3" format="ascii">
 0.9747915538 -0.1891053419 -0.1184085987 0.1556485298 0.9313615798 0.3291491196 -0.0003232543 0.6156883518 -0.7879896884 -0.2091916078 0.7160393620 -0.6659778550 0.1105512203 -0.0477411117 -0.9927231306 0.2340375461 -0.1104464149 -0.9659337536 0.5989943942 -0.7721036833 -0.2122772196 -0.3785809819 0.6350980751 -0.6732955333 -0.3289136270 0.6782415664 -0.6571181048 -0.1640941811 -0.9500710550 -0.2654017524 -0.8558847635 0.4667810398 0.2226583314 -0.1350999761 -0.4517013083 0.8818809016 -0.1431501831 -0.4773595431 0.8669693719 -0.1118449036 -0.3856420379 0.9158443842 -0.0081046098 0.0628641658 -0.9979891843 0.0270445731 -0.0942918444 -0.9951771898 -0.8306868376 -0.0603138288 0.5534632958 -0.4674351548 0.3959623627 -0.7903911584 -0.3773889237 -0.4899913811 -0.7858028040 0.4440956220 -0.1533839692 0.8827527607 0.4067530683 -0.1807737516 0.8954735017 -0.6611275491 -0.1452582588 -0.7360777147 0.5874815988 -0.7237551032 0.3619998918 -0.6332205465 -0.2041399502 -0.7465645453 -0.0681263837 -0.3231430880 -0.9438947720 -0.7624524597 0.1937729858 -0.6173477761 0.3122072706 -0.0296343121 0.9495516983 -0.7326755580 -0.5323349101 0.4240354588 -0.8002183712 -0.5994021723 0.0191727467 -0.0014873073 -0.9555355296 0.2948722429 0.3792489488 0.7896158847 0.4823660327 0.3335009324 -0.6193310857 -0.7107785410 0.7537495875 0.4855983213 -0.4427819212 0.2868728443 0.6852071227 -0.6694738009 -0.4730480960 -0.4348196797 -0.7662619298 0.2187691138 -0.1882004096 -0.9574553152 -0.6235647740 0.7261457796 -0.2896191973 -0.5203082707 0.6629825549 0.5382689247 -0.1221942976 -0.0628817201 -0.9905122124 -0.3278967910 0.7300319727 0.5996140536 -0.7229662535 0.6861540009 0.0806999581 0.4062318261 -0.7681352479 -0.4949181189 0.4403273034 -0.7258741993 -0.5284113101 0.1714000692 0.2528772287 0.9521948978 -0.4374930219 -0.6611582021 0.6094831315 0.6137807665 -0.7894159678 0.0097775473 0.5987799919 -0.8009133876 0.0005165814 0.5470290922 0.8316664731 0.0953417524 0.5002365780 0.7781587069 -0.3797794003 0.0644058103 -0.3625906163 0.9297203540 0.7568303009 -0.0108346072 0.6535216193 0.1051816455 0.2945481865 0.9498306098 -0.1808230381 0.8147091764 -0.5509555216 -0.1008792113 0.1907605954 -0.9764393376 -0.1032412001 0.6612318667 -0.7430435203 -0.0936575041 0.2014982419 -0.9750008874 -0.2510066194 0.5932123090 0.7649149191 0.4791439965 -0.4880283486 -0.7295542211 0.2606773634 -0.8737868958 0.4105408297 -0.4047494150 0.2953093173 -0.8654307125 -0.5608911117 0.6175381956 -0.5514052393 0.6797817200 -0.6361755775 -0.3649348542 0.1156969342 -0.2593148912 -0.9588378417 0.2789904534 -0.2545942543 -0.9259298530 -0.1155511245 -0.6944450196 0.7102070490 -0.1321324935 -0.1361898500 -0.9818316194 0.2529543412 0.1365699139 -0.9577905616 -0.5589524861 0.4655845183 0.6861509853 -0.4312921762 0.6830509619 0.5894306084 0.1402451159 0.8219204411 -0.5520671118 -0.6360157009 -0.7537142310 0.1655260893 0.0925273156 -0.3338408367 0.9380772845 0.0491872992 -0.2198746270 0.9742873077 0.3166225250 0.5399733322 -0.7798583058 0.7739131628 0.4542425740 0.4412732718 0.3338231006 0.5766827806 -0.7456534772 0.2733253221 0.6220429697 -0.7337273418 0.8864297374 0.4482298213 -0.1154657869 -0.3053541616 -0.8428094317 -0.4432054803 -0.1992608767 0.9574883261 0.2085934045 -0.5910490912 0.7304539703 0.3421958050 0.3398069627 0.5388955879 -0.7707935998 0.3864350986 0.5409600628 -0.7470141398 0.3397921696 0.5388947074 -0.7708007368 0.3863522710 0.5409576846 -0.7470587033 0.3397881753 0.5388944695 -0.7708026639 0.3397881869 0.5388944702 -0.7708026583 0.3396933235 0.5388888187 -0.7708484203 0.1341463216 -0.5229965188 0.8417121870 0.1212010860 -0.4694749052 0.8745876801 0.1202361340 -0.4654904420 0.8768477180 0.1193592388 -0.4618701683 0.8788795821 0.1175880377 -0.4545594274 0.8829205969 0.1025562804 -0.3926016712 0.9139727223 -0.0832922460 -0.9414188630 -0.3267918699 0.7067907228 -0.6148475682 -0.3498704647 0.4600911143 -0.3548054942 -0.8138975537 -0.2236752657 0.1351028477 0.9652546794 -0.2233482761 0.1346972823 0.9653870673 -0.2232088109 0.1345247002 0.9654433861 -0.2233952402 0.1347555245 0.9653680724 -0.2227440736 0.1339479978 0.9656308878 -0.2229371172 0.1341876981 0.9655530558 -0.2228427123 0.1340816165 0.9655895845 -0.2228276337 0.1343143243 0.9655607220 -0.2232408941 0.1348936810 0.9653844820 0.1671635135 -0.3141118238 -0.9345534345 -0.2216887247 0.1353672133 0.9656758394 0.2536363039 -0.2166838134 -0.9427177469 0.2507005447 -0.2098584801 -0.9450442610 0.4823696022 -0.3853315718 -0.7866632995 0.7373193780 0.4352038484 0.5166795382 0.4639156593 0.3373105563 -0.8191482464 0.2200441963 -0.1323412922 -0.9664710725 0.2255966423 -0.1297923132 -0.9655361777 0.2251420473 -0.1261578254 -0.9661238335 0.2040216142 -0.0976542057 -0.9740835883 0.2248460236 -0.1251841055 -0.9663194117 -0.0139750198 0.4229632571 -0.9060390621 -0.0691130599 0.3603128463 -0.9302677237 -0.1595995912 0.0901286408 -0.9830588988 -0.0738999030 0.1555959138 -0.9850526463 -0.3378220630 0.8583488591 0.3861521590 0.1559565526 -0.5234975653 0.8376322897 -0.3064809040 -0.9366612141 -0.1695146763 0.9249570992 0.1038861084 -0.3655981961 0.5339160637 0.5978467860 0.5979237890 -0.9194713245 0.3291185483 -0.2150661864 0.0690744612 -0.6893261403 0.7211506022 0.0715361140 -0.6723219063 0.7367942987 0.0633829185 -0.3698694113 0.9269192113 0.4348106881 0.8794752891 -0.1935533040 -0.3193986833 -0.5164682814 -0.7945092796 0.2729393795 0.5236086253 -0.8070552042 -0.0182787795 0.0020554623 0.9998308163 -0.0182885765 0.0020856692 0.9998305746 0.0758785587 -0.0439939519 0.9961460618 0.2196236718 -0.5920257336 -0.7754166451 -0.1203012142 0.3289821222 -0.9366420774 -0.1203143942 0.3289929813 -0.9366365703 0.2195951636 -0.5918382053 -0.7755678583 -0.1203260587 0.3290025914 -0.9366316963 0.1404390190 -0.0212067497 0.9898621903 0.2193847105 -0.5915726269 -0.7758299917 0.2182336170 -0.5916345056 -0.7761074025 -0.3184395384 -0.8156917147 0.4829526756 -0.8647272057 0.4793045137 -0.1500468022 -0.0522432486 0.3310555981 0.9421639103 -0.6878224446 0.4290248251 -0.5855236837 -0.0391907127 -0.7612152158 -0.6473140531 0.1348543111 -0.2778272639 -0.9511184607 -0.8774969686 0.4306279980 0.2110890747 -0.5000344883 0.4192107351 -0.7577782460 0.5888624584 -0.5447718936 -0.5970465552 0.2176951282 -0.1594762307 -0.9628998718 0.9732451929 0.2297632442 0.0016266913 0.9097896502 -0.4077987102 0.0773498823 0.1097455851 0.9769573832 0.1830578543 -0.6846667104 -0.2370113057 0.6892438876 -0.6893887330 -0.2319622171 0.6862482821 -0.6821610206 -0.2403283106 0.6905784859 -0.6643251238 -0.2357007793 0.7093076008 0.4878891245 -0.4802341697 -0.7289302740 0.7529062185 -0.6491908791 -0.1080899100 0.2727250657 0.7967204441 0.5393121290 0.2740729406 0.8371764301 0.4733071393 0.2051118943 0.6382999008 -0.7419584540 -0.1775313283 0.9572734929 0.2282763397 0.3004475671 0.5924353411 -0.7474969070 0.2808826424 0.5829336159 -0.7624259575 -0.2982577989 0.4465190368 -0.8436012299 -0.2998646135 0.4873924689 -0.8200791394 -0.1925432485 -0.5413392114 0.8184613342 -0.1959546138 -0.5311518534 0.8243054640 -0.4401978818 0.6287118851 -0.6410516285 0.0843889239 0.9895783267 0.1166758111 -0.6476720782 -0.7391189012 -0.1849976460 0.6216122413 -0.6940040776 -0.3632582576 -0.4375352350 0.6556013532 -0.6154265055 -0.1214284437 0.3526679198 -0.9278364465 -0.2327302302 0.2571478496 -0.9379294341 -0.4787838417 0.7627026402 -0.4347996269 -0.7772729099 -0.6138776901 -0.1378441336 -0.2439589528 0.3582943978 -0.9011709904 0.3980575989 0.4543405402 -0.7969471886 0.3425942030 0.4965008071 -0.7975689065 -0.8870353694 0.3677531777 0.2791520261 0.5486870357 0.7455276128 0.3783267309 -0.9735173238 0.2175854813 0.0701468359 0.4890771398 -0.6032480055 0.6299963454 0.0012760662 0.0688571063 -0.9976257167 0.1759152663 -0.2957721561 -0.9389210035 0.5086686921 -0.3522608587 -0.7856006932 0.1810361209 -0.9834615295 -0.0054169179 0.6009457625 -0.1244953841 -0.7895347300 0.4876176261 0.4211280164 0.7647746364 -0.0679426544 -0.9154064882 -0.3967552861 -0.1240942441 0.3798924247 -0.9166691684 0.3199731305 -0.2088058619 0.9241305686 0.8042402554 -0.5929226516 0.0405011223 0.5662153257 -0.0069576807 0.8242279998 0.0980783110 0.7588148543 0.6438793845 -0.1530824131 0.6431248718 -0.7503040544 0.1416160121 -0.5274985044 -0.8376695249 0.0884945963 0.1643922519 0.9824173726 0.7160900657 -0.2993454609 -0.6305611095 -0.4287998065 0.5265411344 0.7340879782 -0.4343648203 0.5251378165 0.7318179259 0.1083159871 0.8496842706 -0.5160467878 -0.3691581700 -0.1434443144 -0.9182298047 -0.2697417829 0.0782662946 -0.9597467154 -0.3532825445 -0.2887441078 0.8898417185 0.2670874708 0.3723073883 -0.8888484075 0.3194037473 0.1158288278 -0.9405131200 0.1844546174 -0.3893358973 0.9024378390 -0.2692774670 0.0360413221 -0.9623880033 -0.2118827707 0.0194492516 -0.9771015393 0.6307879561 -0.6958763869 -0.3433112416 0.6345135585 -0.6932236535 -0.3418091723 -0.2452081532 0.8946540694 -0.3734528855 -0.4034518787 0.9128330904 0.0629470460 -0.5501747136 -0.7402668161 0.3864101778 0.1736242553 0.3618960254 -0.9159071376 0.1745337907 0.3467239429 -0.9215858416 0.3689545743 -0.7350847036 -0.5687908232 -0.4894770569 -0.5443586408 -0.6812384905 0.0872466363 0.4822731762 0.8716654220 0.0727121252 0.4573937998 0.8862865557 0.2522791737 0.7724971308 -0.5827550097 0.2154710336 0.8023404470 -0.5566166012 -0.1607098821 -0.9840521225 0.0762479773 -0.0931178088 0.9012254013 0.4232278934 -0.4459935767 -0.8641424851 -0.2331254920 0.7010673722 -0.1014259704 0.7058451049 0.7782128724 -0.0147322482 0.6278277520 -0.1275112649 -0.6337522124 0.7629541340 -0.1229704024 -0.6300080684 0.7667907889 -0.1230272848 -0.6300558769 0.7667423812 -0.0931371793 -0.6040856389 0.7914581522 -0.1221240325 -0.6310882588 0.7660374209 -0.0936791843 -0.6037519713 0.7916487653 -0.0935577214 -0.6036564277 0.7917359851 0.9207248158 0.2509572050 0.2988081237 0.3278830691 0.4940668507 -0.8052270736 -0.1526562767 -0.6451808760 0.7486238698 -0.1526698077 -0.6451620272 0.7486373545 -0.1527004204 -0.6451585198 0.7486341336 -0.1526506330 -0.6451642375 0.7486393597 -0.1526656704 -0.6451625040 0.7486377872 0.0625051557 0.7553030390 -0.6523882470 0.1033423486 0.2809553028 -0.9541407007 0.3835039803 -0.3528243519 0.8534867742 0.8628096649 -0.3291930762 0.3836553149 -0.5887389465 -0.7891306297 -0.1750979787 0.9619262865 -0.2519946841 -0.1058135084 -0.5206143445 -0.8481585799 -0.0979169422 -0.2432174418 0.7901463035 -0.5625958541 -0.8901578615 -0.4552992476 0.0179325613 -0.6185918978 -0.0476193565 0.7842681052 0.3469554432 -0.0040883039 -0.9378727026 -0.0467367541 -0.9986877645 0.0209385955 0.2099515448 -0.1527037615 -0.9657131614 -0.0269320924 0.4038860717 0.9144127643 0.4286124773 0.7399933132 -0.5183640041 0.4532713582 0.7272617665 -0.5153982915 0.1845972890 0.3779823632 0.9072227808 0.2555983358 -0.2073868272 -0.9442776047 0.1847431219 -0.1869324687 -0.9648451850 0.2492636523 -0.2021677207 -0.9470986455 -0.7911567449 0.3426684701 -0.5066056895 -0.5723024099 -0.0950531376 -0.8145151028 -0.2974209559 0.6821023458 -0.6680397929 -0.6319349224 -0.0789067756 -0.7709941470 -0.6582754672 -0.6958836554 0.2870876999 0.2081260045 0.4640944502 -0.8609877511 0.1678102569 0.4471247108 -0.8785893299 0.6611207868 0.1053128613 -0.7428516046 -0.3587927652 -0.1863873127 0.9146187847 -0.3549848196 -0.2376990291 0.9041487430
        </DataArray>
        <DataArray type="Float32" Name="contact force" NumberOfComponents="3" format="ascii">