<?xml version="1.0"?>
<VTKFile type="UnstructuredGrid" version="0.1" byte_order="LittleEndian">
  <UnstructuredGrid>
    <FieldData>
      <DataArray type="Float32" Name="TIME"  NumberOfTuples="1" format="ascii"> 1.4000000000 </DataArray>
      <DataArray type="Int32"   Name="STEP"  NumberOfTuples="1" format="ascii"> 140000 </DataArray>
    </FieldData>
    <Piece NumberOfPoints="285" NumberOfCells="285">
      <Points>
        <DataArray type="Float32" NumberOfComponents="3" format="ascii">
 3.0098564177 0.1797382747 -2.8908979020 3.1249715332 0.1052133949 -2.8800574131 3.1302764792 0.1183910008 -2.8638441134 3.0759509745 0.1049385818 -2.9953091132 3.1414422089 0.1167527315 -2.8810677124 3.0878449674 0.0999473862 -2.9995848560 3.1862680194 0.0967980633 -3.0305125626 3.1834571479 0.3330849022 -2.8618809306 3.1950022823 0.3283474156 -2.8697273513 3.1971870187 0.4183352835 -2.8779902152 3.2894573955 0.1728480730 -3.0769532160 3.2971180365 0.1797327286 -3.0774256093 3.2574386031 0.4380524746 -2.9717193086 3.3368513378 0.2372140233 -3.1600222613 3.2351696665 0.3793059702 -3.1477707065 3.2450276297 0.3774008026 -3.1575998513 3.2644341486 0.3939719554 -3.1667135470 3.3842995079 0.3850801712 -3.0304503136 3.3951683197 0.3777787478 -3.0395100879 3.4124533242 0.3708016065 -3.1355340165 3.6625007434 0.2572586442 -2.6929884878 3.6105160488 0.3167614122 -2.7811143973 3.6107347149 0.3126272367 -2.7898385748 3.6997527126 0.5145399746 -2.8520666652 3.7006060303 0.5065586786 -2.8728057852 3.6941926735 0.2870889616 -2.9108457188 3.6950845272 0.3008749019 -2.9184456952 3.6535645689 0.4687813343 -2.9778178164 3.6464906559 0.4498737224 -2.9636186724 2.8609090176 0.7536200945 -2.7091171712 2.8644401672 0.7445965082 -2.7151822556 2.7900258865 0.8398778964 -2.5427274885 2.7876076915 0.8403822295 -2.5302024484 2.8254980570 0.6692364817 -2.6264779348 2.8119029638 0.7326516864 -2.4965105389 2.8194333372 0.7269991772 -2.4995061505 3.2384614718 0.7243507109 -2.8019707708 3.3297734404 0.7292699544 -2.8719769033 3.2360082367 0.7178179282 -2.9210053571 3.2399309887 0.7218623591 -2.9243534120 3.2347474708 0.7237294712 -2.9274877450 3.0992830288 0.7367564127 -2.8691230558 3.3356200294 0.8365248298 -2.9227013021 3.1735532101 0.8200896594 -2.8391248138 3.1683314993 0.8212660408 -2.8443856294 3.1765938247 0.8254790921 -2.8443842338 3.1718865581 0.8269085726 -2.8499725602 3.1677052255 0.8289076225 -2.8562448997 3.0919906979 0.3963007787 -2.4182081382 2.9319314688 0.5879666308 -2.5115445753 3.1687161991 0.4708325061 -2.4700160093 3.1763417421 0.4708527953 -2.4797970393 3.1809486407 0.4867636534 -2.4785572864 3.1873431021 0.4857585264 -2.4871620422 3.0768769713 0.3989907239 -2.6326044179 3.0370340331 0.6816203279 -2.3686820000 3.0364388687 0.7220185749 -2.5813659346 3.2550692154 0.4697426898 -2.6101418900 3.2628848787 0.4810223555 -2.6106087486 3.2446304234 0.7652614054 -2.5101440217 3.2560779736 0.7836047872 -2.5211012549 3.1732642764 0.8595778290 -2.6732821342 3.3870736348 0.7195470416 -2.6436801204 3.5569995689 0.2959053592 -2.7802157247 3.5629122009 0.2939698880 -2.7924883454 3.2430826857 0.0427934052 -2.9855048528 3.3590473113 0.2177463735 -2.9453448211 3.4412530608 0.3526975966 -2.9206356055 3.4519859336 0.3603143409 -2.9185950591 3.2859320277 0.2811722952 -2.8232701611 3.2800409618 0.2795707013 -2.8141360586 3.3507411132 0.1801290928 -2.7050270809 3.2432880020 0.2172374956 -2.7347155006 2.8431971013 0.3931322871 -2.7232684470 2.8379824288 0.3876052240 -2.7130962573 2.8342794948 0.4108173169 -2.5938021943 2.8400362897 0.4198354542 -2.5879859509 2.8369339519 0.4280211516 -2.5793100828 2.8425139772 0.4349979103 -2.5753397536 2.8394444769 0.4419121939 -2.5677783293 2.8418712711 0.4544390333 -2.5574673329 2.8387638180 0.4614641464 -2.5498095920 2.8004537534 0.5522970515 -2.6219171806 2.8049807386 0.5574312018 -2.6233693657 2.8586929470 0.5919426032 -2.4930965684 2.8542534927 0.6009282743 -2.5012293553 2.9268922251 0.3251104384 -2.5479573225 2.9870454201 0.2456114145 -2.6469138093 2.9828958605 0.2369043664 -2.6441469777 2.9926338299 0.2463796335 -2.6504514129 2.9770927736 0.2308163888 -2.6403808012 2.9888598158 0.2363364602 -2.6478873239 2.9977760700 0.2489506938 -2.6537373431 2.9942126234 0.2372272336 -2.6512834092 3.0026999223 0.2534764336 -2.6569195084 3.0076414422 0.2603827911 -2.6601496426 3.0128949057 0.2705067347 -2.6636129293 2.8718117108 0.2478124686 -2.5037357081 3.0195868087 0.2689556851 -2.6678152733 3.0804215801 0.2697225529 -2.6071727191 2.9020836873 0.1736174643 -2.5025095913 2.8576663435 0.0993851864 -2.5323368284 2.8707462072 0.0764530994 -2.5427655845 2.9475830741 -0.0066752527 -2.5337230107 3.0880328006 0.0882647919 -2.6000477997 3.0937508607 0.0983902732 -2.6036502222 3.1005253905 0.1033743709 -2.6080132913 3.5363441431 0.0848015730 -2.9601563885 3.6129432751 0.0998243517 -2.7702756008 3.0946033475 0.2684448306 -2.5437422797 3.4718995545 0.6798859399 -2.6612270909 3.4190564884 0.6118172749 -2.8162830097 3.5156413654 0.6685475656 -2.7990611888 3.5128854052 0.6715255819 -2.8047739424 3.5161657321 0.6777569379 -2.8026449458 3.4402430236 0.7432268124 -2.8134524959 3.1914672369 0.4855113255 -2.8479240753 3.2652876611 0.4900706605 -2.8495809599 3.2698643365 0.5091455062 -2.8439275163 3.2786133222 0.5021832793 -2.8541334374 3.1616673885 0.5483365191 -2.9803299553 3.1650720979 0.5625068792 -2.9804146002 3.1669148927 0.5758016067 -2.9787509552 3.1737039428 0.5606194149 -2.9908012634 3.1756006910 0.5737933668 -2.9890658320 3.1761567716 0.5863989861 -2.9859110576 3.1836308181 0.5835868383 -2.9953415408 3.1833771108 0.5957755632 -2.9910846776 3.3457427982 0.6362292759 -2.9194346336 3.3542274475 0.6391596345 -2.9257116202 3.3626940528 0.6420873922 -2.9319800563 3.4088635161 0.4621088996 -3.0174822156 3.4163746968 0.4726396158 -3.0198353905 3.3714661377 0.6452021668 -2.9385222298 3.4236451783 0.4828926674 -3.0222681063 3.2712579043 0.7328828369 -3.0281179790 3.3809418750 0.6487380268 -2.9456843558 3.2787816827 0.7317352143 -3.0377064999 3.3917116553 0.6530437490 -2.9539769000 3.3431927889 0.7581084875 -3.0239429924 3.4373653567 0.5528890384 -3.1198551078 3.3476211925 0.6300044573 -3.1438173861 3.4456057392 0.5598525442 -3.1147857665 3.3608562212 0.6431326395 -3.1555014590 3.5052955877 0.6702956568 -3.0488592556 3.0081280216 0.7109646202 -2.9000548634 3.0022874188 0.7200330928 -2.9012367348 3.0104724001 0.7208650612 -2.9049684224 3.0048467368 0.7310053747 -2.9068677769 3.0179977090 0.7215018269 -2.9086608597 3.0132475070 0.7315373995 -2.9107010790 3.0960774392 0.6216508500 -2.9951664657 3.0211495579 0.7322006135 -2.9143464058 3.1002183658 0.6252068314 -3.0041543442 3.1010338338 0.6322772298 -2.9980027094 3.1018455737 0.6388710814 -2.9926224953 3.1062759645 0.6442595870 -3.0013633003 3.1074836617 0.6509801958 -2.9968528273 3.2299719142 0.1064813431 -2.6300435178 3.2258458355 0.0098643740 -2.5679490087 3.0531932328 0.1038004876 -2.4972297437 3.1269813980 0.0507122319 -2.4828796837 3.0558970091 0.0015336873 -2.4633677989 3.0470439917 0.0096064945 -2.4725003032 3.7261054231 0.4128355691 -2.8609032702 2.9614209457 0.0413733654 -2.8070861940 2.9793971470 0.1337150388 -2.8355824183 2.9833742105 0.1368647523 -2.8344205721 3.0003192371 0.1608589132 -2.7675433929 3.0091653039 0.1663346643 -2.7692732234 2.8008434227 0.8544371813 -2.4616643566 2.8106380810 0.8631447427 -2.4630810052 3.1035468710 0.4492349154 -2.8181807275 3.1003053229 0.4392975932 -2.8161518129 3.2188824335 0.3559747602 -2.8041284387 3.3147469293 0.5729307925 -3.1850432120 3.3069980004 0.5771599644 -3.1804896880 3.4006572412 0.0600211130 -3.0067689863 3.3774460524 0.0698828707 -2.9630490440 3.3875066707 0.0745426942 -2.9625917968 3.3809478569 0.0760721894 -2.9583283065 3.4727251942 0.1092149398 -3.0195243877 3.4813776693 0.1225477895 -3.0184970109 3.3438241193 0.1805841201 -3.0479284947 3.3487016383 0.1844472925 -3.0482841016 3.2800889853 0.1110552534 -2.5208543047 3.5900679348 0.5920565004 -3.0137786343 3.5556497221 0.5861863848 -2.9233678178 3.5576809499 0.4638946966 -2.9930014935 3.5533344258 0.4609433048 -2.9882471522 3.5527466819 0.4562158432 -2.9927683528 3.5488317839 0.4537040046 -2.9881102996 3.5020968411 0.3710652718 -3.0541516688 2.9483169415 0.8443329288 -2.7882767178 3.4812302164 0.6331690135 -2.8988089924 3.3851270458 0.5804042761 -2.8362790209 3.3775893012 0.5843425225 -2.8302234986 2.9119916179 0.8382856499 -2.4741235683 2.9190083561 0.8373785420 -2.4704449412 2.8591867495 0.2325472919 -2.7445037785 2.9408471677 0.2342486359 -2.8418548967 2.8949789817 0.3744486835 -2.7805400405 2.9922018392 0.0975181271 -2.4524555517 3.0276444101 0.1372105705 -2.4729366050 2.9327767607 0.2097340521 -2.4958276219 3.2623027298 0.0069981919 -2.7408549579 3.3497485870 0.0051670676 -2.7651352675 3.1232473733 0.8363586206 -2.3944806747 2.9860404051 0.8742769197 -2.5167474515 3.3898667018 0.1260495378 -2.6480341709 3.3871478589 0.1206416104 -2.6493431089 3.2790812068 0.1290776062 -2.6614613583 3.5125601764 0.3129843184 -3.1421929740 2.9578930910 0.8277509343 -2.8434184307 2.9495481165 0.8357118672 -2.8402610159 3.4242173766 0.6826928694 -2.6325147460 3.0767296188 0.7865554698 -2.9242380470 3.3484307839 0.7454198409 -2.5397789717 3.3415592630 0.7459622555 -2.4628624581 2.9246945082 0.0311579694 -2.7347580760 2.8749246319 0.0129330632 -2.7599892811 2.8644504200 0.0184604514 -2.7596988776 3.0614010851 0.7209021682 -2.3427907594 3.0654014177 0.7201081779 -2.3434435268 3.0598297290 0.7188291033 -2.3414039211 3.1638453920 0.7886799528 -2.3903216567 3.0145122687 0.7611507189 -2.7333272255 3.0749230900 0.8848757350 -2.7003851326 3.0838164935 0.8861484948 -2.7123482302 3.0558397249 0.8625491010 -2.7289455164 2.7860061599 0.1612269303 -2.6647894008 2.8538175585 0.0886848064 -2.7397583972 3.4200164413 0.8854403349 -2.9298248409 3.5108045787 0.8739366555 -2.8781761312 3.4121988559 0.8882488841 -2.9210254951 3.5074653351 0.8525261783 -2.8768377968 3.5490500704 0.6396836577 -2.8446249358 3.5482802640 0.6459512859 -2.8496901802 3.5511539711 0.6506383216 -2.8525626366 3.5701752960 0.3587322682 -2.9758443403 3.4016362672 0.0374788987 -2.8927288933 3.4032646689 0.0321351126 -2.8994538804 3.4981928395 0.0233083786 -3.0555003922 3.4964929890 0.0160398126 -3.0492341880 3.5096810092 0.0094087349 -3.0081415219 3.5078929169 0.0122858211 -2.9985553997 2.9756638791 0.1106268381 -2.8939675216 3.4341270140 0.8442918577 -3.0425448412 3.4342156159 0.8528825719 -3.0419180995 2.8971735321 0.0777216620 -2.7129026738 3.2270290128 0.4418121039 -2.3971787001 3.0657959639 0.5577486001 -2.2832912695 3.3489323576 0.1078486264 -3.2473833430 3.3503263717 0.1157228224 -3.2379577774 3.3566540077 0.1183918176 -3.2393391052 3.3583866853 0.1233923780 -3.2339998343 3.3607005733 0.1273634597 -3.2304843425 3.3637001335 0.1306818146 -3.2283773224 3.3676005808 0.1335691551 -3.2275438960 3.3863360664 0.0217618888 -2.8252345681 3.3755753510 0.0199424537 -2.8186374264 3.4071408536 0.0276411426 -2.8352454128 3.4124227966 0.2853563744 -3.2088631372 3.7927385671 0.3116259680 -2.7922970382 2.8469692364 0.5841977140 -2.6899428609 2.8382941981 0.5717528509 -2.6921648274 2.9900485681 0.6146814281 -2.7203136423 2.9761271014 0.4868279476 -2.8111282756 3.0243663816 0.6908008955 -2.7709420344 3.0269823499 0.6873427363 -2.7721875968 3.0710025887 0.4588572867 -2.9278736490 3.0689280985 0.3980309465 -2.3745222553 2.9844323899 0.2734049359 -2.4305127572 3.0271084146 0.2515874816 -2.3758716866 2.9902259440 0.2643845543 -2.4332494128 2.8360036177 0.0230132959 -2.6446066227 3.1979072060 0.7550365005 -2.4307541024 3.2699307147 0.0127325825 -2.5803610373 3.2552127304 -0.0115771539 -2.5238904700 3.2554020486 -0.0103194838 -2.5206880264 2.8890266631 0.3840353341 -2.5298124582 2.8826416955 0.3813014969 -2.5274081340 3.3882969551 -0.0440119307 -2.6833791587 3.1370733922 0.8782009288 -2.7593478612 3.1302667244 0.8721641989 -2.7586880322
        </DataArray>
      </Points>
      <Cells>
        <DataArray type="Int32" Name="connectivity" format="ascii">
 0 1 2 3 4 5 6 7 8 9 10 11 12 13 14 15 16 17 18 19 20 21 22 23 24 25 26 27 28 29 30 31 32 33 34 35 36 37 38 39 40 41 42 43 44 45 46 47 48 49 50 51 52 53 54 55 56 57 58 59 60 61 62 63 64 65 66 67 68 69 70 71 72 73 74 75 76 77 78 79 80 81 82 83 84 85 86 87 88 89 90 91 92 93 94 95 96 97 98 99 100 101 102 103 104 105 106 107 108 109 110 111 112 113 114 115 116 117 118 119 120 121 122 123 124 125 126 127 128 129 130 131 132 133 134 135 136 137 138 139 140 141 142 143 144 145 146 147 148 149 150 151 152 153 154 155 156 157 158 159 160 161 162 163 164 165 166 167 168 169 170 171 172 173 174 175 176 177 178 179 180 181 182 183 184 185 186 187 188 189 190 191 192 193 194 195 196 197 198 199 200 201 202 203 204 205 206 207 208 209 210 211 212 213 214 215 216 217 218 219 220 221 222 223 224 225 226 227 228 229 230 231 232 233 234 235 236 237 238 239 240 241 242 243 244 245 246 247 248 249 250 251 252 253 254 255 256 257 258 259 260 261 262 263 264 265 266 267 268 269 270 271 272 273 274 275 276 277 278 279 280 281 282 283 284
        </DataArray>
        <DataArray type="Int32" Name="offsets" format="ascii">
 1 2 3 4 5 6 7 8 9 10 11 12 13 14 15 16 17 18 19 20 21 22 23 24 25 26 27 28 29 30 31 32 33 34 35 36 37 38 39 40 41 42 43 44 45 46 47 48 49 50 51 52 53 54 55 56 57 58 59 60 61 62 63 64 65 66 67 68 69 70 71 72 73 74 75 76 77 78 79 80 81 82 83 84 85 86 87 88 89 90 91 92 93 94 95 96 97 98 99 100 101 102 103 104 105 106 107 108 109 110 111 112 113 114 115 116 117 118 119 120 121 122 123 124 125 126 127 128 129 130 131 132 133 134 135 136 137 138 139 140 141 142 143 144 145 146 147 148 149 150 151 152 153 154 155 156 157 158 159 160 161 162 163 164 165 166 167 168 169 170 171 172 173 174 175 176 177 178 179 180 181 182 183 184 185 186 187 188 189 190 191 192 193 194 195 196 197 198 199 200 201 202 203 204 205 206 207 208 209 210 211 212 213 214 215 216 217 218 219 220 221 222 223 224 225 226 227 228 229 230 231 232 233 234 235 236 237 238 239 240 241 242 243 244 245 246 247 248 249 250 251 252 253 254 255 256 257 258 259 260 261 262 263 264 265 266 267 268 269 270 271 272 273 274 275 276 277 278 279 280 281 282 283 284 285
        </DataArray>
        <DataArray type="UInt8" Name="types" format="ascii">
 1 1 1 1 1 1 1 1 1 1 1 1 1 1 1 1 1 1 1 1 1 1 1 1 1 1 1 1 1 1 1 1 1 1 1 1 1 1 1 1 1 1 1 1 1 1 1 1 1 1 1 1 1 1 1 1 1 1 1 1 1 1 1 1 1 1 1 1 1 1 1 1 1 1 1 1 1 1 1 1 1 1 1 1 1 1 1 1 1 1 1 1 1 1 1 1 1 1 1 1 1 1 1 1 1 1 1 1 1 1 1 1 1 1 1 1 1 1 1 1 1 1 1 1 1 1 1 1 1 1 1 1 1 1 1 1 1 1 1 1 1 1 1 1 1 1 1 1 1 1 1 1 1 1 1 1 1 1 1 1 1 1 1 1 1 1 1 1 1 1 1 1 1 1 1 1 1 1 1 1 1 1 1 1 1 1 1 1 1 1 1 1 1 1 1 1 1 1 1 1 1 1 1 1 1 1 1 1 1 1 1 1 1 1 1 1 1 1 1 1 1 1 1 1 1 1 1 1 1 1 1 1 1 1 1 1 1 1 1 1 1 1 1 1 1 1 1 1 1 1 1 1 1 1 1 1 1 1 1 1 1 1 1 1 1 1 1 1 1 1 1 1 1 1 1 1 1 1 1 1 1 1 1 1 1
        </DataArray>
      </Cells>
      <PointData Scalars="overlap">
        <DataArray type="Float32" Name="overlap" format="ascii">
 0.0001253991 0.0001214779 0.0001459428 0.0006802476 0.0000505072 0.0006107569 0.0000524065 0.0000971109 0.0000609576 0.0001443709 0.0000517881 0.0002452878 0.0003216641 0.0000011575 0.0000521023 0.0000196767 0.0003121200 0.0000006760 0.0002187536 0.0000966824 0.0001179003 0.0003271651 0.0002048029 0.0003262791 0.0001769984 0.0002854087 0.0002231876 0.0001290515 0.0004631147 0.0000562982 0.0001431147 0.0002004056 0.0000137285 0.0002659589 0.0000762761 0.0000788079 0.0000989996 0.0002608517 0.0002177178 0.0005426052 0.0000371443 0.0001551889 0.0000840377 0.0001112179 0.0001580459 0.0001920099 0.0003588639 0.0001373594 0.0000689921 0.0002149102 0.0000404782 0.0000137309 0.0000084735 0.0000857050 0.0003239573 0.0001067088 0.0000485629 0.0001365495 0.0000352503 0.0000236090 0.0000297873 0.0002122267 0.0000211469 0.0000640129 0.0001101340 0.0000661060 0.0001748799 0.0000664639 0.0000803786 0.0000048567 0.0001865692 0.0000626824 0.0001193273 0.0000486083 0.0000314702 0.0000351077 0.0000432636 0.0000501962 0.0000120452 0.0000409884 0.0000069623 0.0000088367 0.0001013858 0.0000756055 0.0000311863 0.0000450197 0.0000256139 0.0000507854 0.0000375783 0.0000752331 0.0000126202 0.0000363424 0.0000904266 0.0000000919 0.0001065143 0.0001201568 0.0001044219 0.0000430424 0.0001244083 0.0000358063 0.0000455450 0.0000307860 0.0000408062 0.0000179245 0.0000827847 0.0000377832 0.0000094548 0.0000123739 0.0000925186 0.0000196363 0.0001784603 0.0000568221 0.0000567095 0.0001942824 0.0000259809 0.0002758009 0.0001914610 0.0002991639 0.0002412526 0.0001549158 0.0002306962 0.0005321992 0.0003136950 0.0000914299 0.0005207784 0.0003810372 0.0000270215 0.0001294887 0.0000296329 0.0000489069 0.0000586222 0.0002061824 0.0003222572 0.0000645690 0.0002471769 0.0002910228 0.0000693100 0.0003304186 0.0000640648 0.0000233403 0.0000181889 0.0000180038 0.0001656150 0.0002724862 0.0001840821 0.0002169281 0.0002235657 0.0001220720 0.0000458187 0.0003070450 0.0003258486 0.0002603380 0.0001254467 0.0001743653 0.0005450169 0.0001756792 0.0002064595 0.0000092156 0.0000249308 0.0000861336 0.0000869050 0.0000074795 0.0000744208 0.0000061589 0.0000167455 0.0000765904 0.0000181549 0.0000160197 0.0000353097 0.0000156969 0.0000595760 0.0000089404 0.0000279645 0.0000119851 0.0000211083 0.0001084279 0.0000747815 0.0000548550 0.0000165659 0.0000252040 0.0000805731 0.0000354449 0.0000006408 0.0002227381 0.0000461326 0.0002035633 0.0000464539 0.0000151988 0.0000137175 0.0001619208 0.0001268919 0.0001585483 0.0001014343 0.0000640377 0.0000561559 0.0000086186 0.0000240714 0.0000506048 0.0000578963 0.0002381563 0.0000762456 0.0002568879 0.0000056846 0.0000301955 0.0000042615 0.0000152200 0.0000018022 0.0000007915 0.0000028473 0.0000517211 0.0000526397 0.0000394829 0.0000034778 0.0000985904 0.0000473316 0.0001063517 0.0000520955 0.0000385098 0.0000381023 0.0001105957 0.0002551054 0.0001994600 0.0000194443 0.0000073827 0.0000115600 0.0000497671 0.0000931635 0.0000519461 0.0000399387 0.0001275372 0.0000432484 0.0000771610 0.0001376696 0.0000060964 0.0000207165 0.0000501615 0.0000020468 0.0000185786 0.0000218020 0.0000504962 0.0000795667 0.0000278888 0.0000329496 0.0000083061 0.0000261537 0.0000420684 0.0000186933 0.0000489023 0.0000272688 0.0000744854 0.0000425255 0.0000184118 0.0000514238 0.0000019794 0.0000809172 0.0000443937 0.0000226050 0.0000196211 0.0000296911 0.0000259954 0.0000137910 0.0000236055 0.0000330441 0.0000242733 0.0000578665 0.0000117257 0.0000513192 0.0000168227 0.0000104717 0.0000084857 0.0000151744 0.0000202437 0.0000215622 0.0000152710 0.0000195904 0.0001755201 0.0000155046 0.0000330174 0.0000096798 0.0000904552 0.0000179756 0.0000216775 0.0000842167 0.0000076669 0.0000559044
        </DataArray>
        <DataArray type="Float32" Name="contact normal" NumberOfComponents="3" format="ascii">