<?xml version="1.0"?>
<VTKFile type="UnstructuredGrid" version="0.1" byte_order="LittleEndian">
  <UnstructuredGrid>
    <FieldData>
      <DataArray type="Float32" Name="TIME"  NumberOfTuples="1" format="ascii"> 1.3000000000 </DataArray>
      <DataArray type="Int32"   Name="STEP"  NumberOfTuples="1" format="ascii"> 130000 </DataArray>
    </FieldData>
    <Piece NumberOfPoints="273" NumberOfCells="273">
      <Points>
        <DataArray type="Float32" NumberOfComponents="3" format="ascii">
 2.6016531201 0.1826876616 -2.4814808458 2.7162440829 0.1078515078 -2.4701475055 2.6674472029 0.1068393656 -2.5853910111 2.6792481421 0.1016612047 -2.5896782623 2.7778149806 0.0980341913 -2.6203639470 2.7759820675 0.3353374540 -2.4531511620 2.7875123786 0.3304956818 -2.4609537285 2.7901516092 0.4204261681 -2.4697543783 2.8814434095 0.1732843635 -2.6671269287 2.8891391321 0.1801276542 -2.6676308391 2.8506239240 0.4392824068 -2.5635264426 2.9292617465 0.2369129945 -2.7505169752 2.8282795497 0.3795794246 -2.7392509223 2.8381411231 0.3775655667 -2.7490547805 2.8576441386 0.3939822120 -2.7582399212 2.9881318353 0.3779052740 -2.6307795297 3.0055034629 0.3702655655 -2.7267424135 3.2544540538 0.2582161216 -2.2831785573 3.2028826018 0.3174258402 -2.3717251029 3.2030779938 0.3132400112 -2.3804274070 3.2931947603 0.5143326195 -2.4437818475 3.2939768928 0.5062098828 -2.4644750296 3.2865554461 0.2865497707 -2.5011742276 3.2875261146 0.3002832489 -2.5088574551 3.2468989264 0.4680247024 -2.5693071467 3.2397163711 0.4492392747 -2.5550004241 2.4451438901 0.7566327019 -2.3050084017 2.4587518514 0.7491226062 -2.3092283674 2.3847030255 0.8460136022 -2.1375131676 2.4193963203 0.6746299610 -2.2199949405 2.4060302902 0.7390403046 -2.0905169584 2.4135358400 0.7333305563 -2.0934698753 2.8328702333 0.7266699975 -2.3955416103 2.9242801959 0.7307259711 -2.4654818931 2.8305001357 0.7194718726 -2.5145353548 2.8344480614 0.7234762662 -2.5179035754 2.8292765659 0.7253517401 -2.5210538230 2.6938256317 0.7393873774 -2.4629115527 2.9307119843 0.8376637292 -2.5168162398 2.7684810408 0.8225142668 -2.4333175055 2.7632711330 0.8236856333 -2.4385911227 2.7715549868 0.8278575648 -2.4386052240 2.7668610972 0.8292775287 -2.4442072127 2.7626967011 0.8312604483 -2.4504960115 2.6843187594 0.4016900231 -2.0099679453 2.5253145226 0.5935995943 -2.1046487769 2.7614717178 0.4755338904 -2.0621400228 2.7691066677 0.4754578901 -2.0719135211 2.7737929948 0.4913524464 -2.0707627199 2.7801903276 0.4902643329 -2.0793552749 2.6694564549 0.4031699075 -2.2244048964 2.6307255270 0.6875660590 -1.9622554122 2.6305776043 0.7266994331 -2.1751462455 2.8479782622 0.4731707291 -2.2021554274 2.8558524320 0.4844065352 -2.2026814949 2.6968199853 0.8144677390 -2.0635235680 2.8388946827 0.7693319165 -2.1039541866 2.8504474357 0.7875520169 -2.1150091108 2.7681926356 0.8630167328 -2.2677252550 3.1551058274 0.2947903970 -2.3827256977 3.1433644353 0.1546606764 -2.4014069416 2.8343260928 0.0438879391 -2.5749219516 2.9511859084 0.2186085998 -2.5356788375 3.0340198710 0.3533133150 -2.5116599912 3.0447615837 0.3608982945 -2.5096645710 2.8722799081 0.2816245181 -2.4049686398 2.9423488365 0.1824925769 -2.2951409281 2.8351138764 0.2199438772 -2.3252126250 2.4358620565 0.3979296487 -2.3153300810 2.4306054979 0.3924814790 -2.3051296981 2.4238356229 0.3911601447 -2.2074334149 2.4268724675 0.4164212933 -2.1859919888 2.4326669090 0.4254451558 -2.1802221307 2.4295943807 0.4336978649 -2.1715992593 2.4352040596 0.4406704256 -2.1676634967 2.4321595768 0.4476448038 -2.1601472828 2.4346357789 0.4602207154 -2.1499080218 2.4315537755 0.4673066770 -2.1422961983 2.3937822319 0.5578917500 -2.2149944400 2.3983362096 0.5629947883 -2.2164717483 2.4520577033 0.5980261659 -2.0863416687 2.4476714181 0.6069833495 -2.0945329779 2.5189891930 0.3305452588 -2.1395221995 2.5788737444 0.2501509279 -2.2379184482 2.5746776973 0.2414814557 -2.2351041408 2.5844702197 0.2508700247 -2.2414536295 2.5688399009 0.2354452131 -2.2313084432 2.5806433373 0.2408613814 -2.2388334964 2.5896291557 0.2533956406 -2.2447486227 2.5945792678 0.2578775850 -2.2479519651 2.5995589059 0.2647396944 -2.2512176681 2.6048667203 0.2748163325 -2.2547356051 2.4634716257 0.2537911052 -2.0949024545 2.6115559693 0.2732067348 -2.2589201104 2.6723165655 0.2740403769 -2.1982014812 2.6802361702 0.2710121932 -2.2021325336 2.4933721628 0.1794554031 -2.0931896721 2.4486198238 0.1052604565 -2.1226255122 2.4616123848 0.0822079265 -2.1328983269 2.5380185145 -0.0012464390 -2.1232493513 2.6665428495 0.0730883273 -2.1820616290 2.6790179573 0.0925941087 -2.1899697583 2.6847909985 0.1026693496 -2.1936251875 2.6915959576 0.1075931452 -2.1980094124 3.1740733547 0.1635175841 -2.5423241163 3.1277435117 0.0847801436 -2.5495153264 3.2042032323 0.1004656049 -2.3596443708 2.7342814521 0.1900500951 -2.1337724962 2.6864418147 0.2730584925 -2.1347765198 3.0658868513 0.6819286700 -2.2542227228 3.0128962580 0.6131772275 -2.4089188829 3.1097527755 0.6695280896 -2.3919226888 3.1070146114 0.6724864136 -2.3976539096 3.1103198711 0.6787154875 -2.3955562712 3.0347403956 0.7444943820 -2.4068585476 2.7846681669 0.4878500764 -2.4401056108 2.8585188902 0.4920370584 -2.4416944489 2.8631855628 0.5111128634 -2.4361445575 2.8719102893 0.5040475001 -2.4462991653 2.7553609727 0.5500308834 -2.5729300109 2.7588182138 0.5641884721 -2.5731126082 2.7607086533 0.5774867920 -2.5715473034 2.7674824426 0.5621860537 -2.5834528288 2.7694191496 0.5753679744 -2.5818135166 2.7700136822 0.5879943024 -2.5787556027 2.7772894722 0.5973017543 -2.5839762485 2.9398032984 0.6373603763 -2.5123242296 2.9483106563 0.6402094130 -2.5186079127 2.9567999482 0.6430559934 -2.5248830525 3.0021810266 0.4623166289 -2.6092231210 3.0097478606 0.4727950471 -2.6116307464 2.9655960175 0.6460863765 -2.5314326528 3.0170727184 0.4829965494 -2.6141165324 2.8659206309 0.7338118244 -2.6217266248 2.8729715440 0.7461203128 -2.6217254745 2.9750986645 0.6495305028 -2.5386038210 2.8734443691 0.7325651805 -2.6312865179 2.9859007007 0.6537310506 -2.5469083535 2.9380042944 0.7586038885 -2.6175740520 2.9419408679 0.6297618296 -2.7366585597 3.0395305649 0.5592874309 -2.7070872911 2.9552596557 0.6427538992 -2.7484041948 3.0997088565 0.6698191110 -2.6417513769 2.6026581793 0.7139620954 -2.4941718067 2.5969007227 0.7230304801 -2.4954292925 2.6050821257 0.7237645776 -2.4991850460 2.6125972846 0.7243583922 -2.5028576901 2.6079399278 0.7343704654 -2.5049953399 2.6897521170 0.6231745107 -2.5888766378 2.6158384909 0.7349376441 -2.5086651109 2.6947662539 0.6337488803 -2.5917982542 2.6955980505 0.6403887959 -2.5864745488 2.7000744142 0.6456770498 -2.5952518213 2.7013053363 0.6524334433 -2.5907949160 2.8210817676 0.1098943575 -2.2198924287 2.8164091859 0.0136628562 -2.1572195109 2.6441186145 0.1089073113 -2.0872975113 2.7176144830 0.0555335139 -2.0725390104 2.6462606514 0.0068328021 -2.0528200412 2.6374596253 0.0148950582 -2.0620117799 3.3190694164 0.4124115146 -2.4519308796 2.4762447362 0.1106463705 -2.3674982720 2.5389741188 0.0494325661 -2.3996910475 2.5605823274 0.1387928092 -2.4253248965 2.5639653060 0.1364629301 -2.4262251090 2.5674566115 0.1394475222 -2.4250861041 2.5709464763 0.1371590587 -2.4259407008 2.5712654370 0.1425462497 -2.4239058191 2.5749445479 0.1402856471 -2.4247882740 2.5917992445 0.1645037478 -2.3579676486 2.6006993473 0.1698943988 -2.3596912736 2.4053923750 0.8696790894 -2.0580517359 2.6965929179 0.4521593561 -2.4102413467 2.6933053121 0.4422511185 -2.4081552031 2.8114635281 0.3584235421 -2.3955068083 2.9088617446 0.5725859208 -2.7775774915 2.9011266125 0.5768827866 -2.7730639048 2.9919833592 0.0603221060 -2.5961213346 2.9687736303 0.0705584141 -2.5524903569 2.9788571831 0.0751701187 -2.5520501288 2.9723015053 0.0767585502 -2.5478033306 3.0643163606 0.1090639901 -2.6090889488 3.0730338737 0.1223597059 -2.6081318095 2.9358147807 0.1809243164 -2.6380671460 2.9407125033 0.1847601467 -2.6384401028 2.8710615481 0.1148742786 -2.1106570315 2.9306484113 0.2154367260 -2.1190777670 3.1840486118 0.5913709524 -2.6060868713 3.1494896651 0.5862114407 -2.5156934345 3.1510151456 0.4634969071 -2.5845804900 3.1466488386 0.4605945184 -2.5798151998 3.1460433675 0.4558438036 -2.5843076231 3.1421106335 0.4533793103 -2.5796397220 3.0950544678 0.3705751812 -2.6452435715 3.0752913444 0.6336954868 -2.4915135940 2.9788475983 0.5817943205 -2.4287914151 2.9713228684 0.5858065434 -2.4227675864 2.5065667839 0.8442124889 -2.0687826327 2.5135738856 0.8432918015 -2.0650890360 2.4510863683 0.2371518750 -2.3356479586 2.5330196223 0.2379312847 -2.4327686971 2.6187019832 0.1425787419 -2.0632354896 2.5242349911 0.2154421053 -2.0866764621 2.8557874100 0.0016944852 -2.3458924073 2.7177064525 0.8416951121 -1.9888640790 2.5808411984 0.8795728417 -2.1115200828 2.9810710316 0.1285539790 -2.2377460508 2.8703341091 0.1320539509 -2.2513949927 2.5525505178 0.8314636886 -2.4380715150 2.6723610222 0.7880592084 -2.5190899918 2.9426176205 0.7487827575 -2.1333079812 2.9356528017 0.7498460430 -2.0563969206 2.5158740997 0.0348570552 -2.3245508801 2.4539371518 0.0167324726 -2.3571457149 2.6552172184 0.7268685247 -1.9365358779 2.6592150407 0.7260522987 -1.9371764015 2.6536338803 0.7248111632 -1.9351393448 2.7580457655 0.7938526710 -1.9843652044 2.6090080537 0.7650042306 -2.3273989756 2.6700009480 0.8886171371 -2.2951111285 2.6789141434 0.8897737430 -2.3070706008 2.6508392414 0.8662171616 -2.3235648806 2.3774586427 0.1666707845 -2.2555363763 2.4449813797 0.0933433844 -2.3300050093 3.0153646106 0.8861024146 -2.5241133848 3.0075492956 0.8889990750 -2.5153430430 3.1025900559 0.8530721417 -2.4708143168 3.1423463651 0.6464585812 -2.4423863528 3.1452480424 0.6511097047 -2.4452887641 3.1417870443 0.6541692972 -2.4486229167 3.1629775657 0.3583759646 -2.5667772338 2.9927232935 0.0384763225 -2.4819431347 2.9943331817 0.0330838822 -2.4886339205 3.0894152882 0.0228281030 -2.6445014305 3.1007779432 0.0091638315 -2.5970397469 3.0989907664 0.0121104162 -2.5874750031 2.6257902999 0.2875314693 -2.4444860934 3.0294176076 0.8441953435 -2.6365897466 3.0295449208 0.8527908950 -2.6360180472 2.9530209241 0.8775363224 -2.6162150361 2.9515292205 0.8798327845 -2.6119818280 2.9533950729 0.8854924370 -2.6064573246 2.9519972790 0.8883808675 -2.6015517924 2.8195734657 0.4466286530 -1.9890829848 2.6587065755 0.5640855473 -1.8760166077 2.9407994410 0.1069719583 -2.8370804792 2.9422212574 0.1148954000 -2.8277004455 2.9485627693 0.1175263658 -2.8290912382 2.9503137281 0.1225503594 -2.8237800070 2.9526428330 0.1265313345 -2.8202858255 2.9556559138 0.1298480116 -2.8181955282 2.9595690888 0.1327218891 -2.8173753410 2.9772677714 0.0232362316 -2.4143809323 2.9664899278 0.0215095963 -2.4077864032 2.9981150947 0.0289500877 -2.4243988687 3.0050538657 0.2843937962 -2.7996236093 2.4405313763 0.5891744353 -2.2831549879 2.4317984819 0.5767593738 -2.2853150279 2.5837994961 0.6187502269 -2.3135299380 2.5693502436 0.4904208188 -2.4035861275 2.6185732454 0.6943832336 -2.3645736206 2.6211735645 0.6909046200 -2.3657948747 2.6512941860 0.4624540448 -2.5171140971 2.6611362131 0.4038191295 -1.9663602709 2.5761760175 0.2792219588 -2.0217220517 2.7920058668 0.7598467354 -2.0245525302 2.8605039661 0.0162494001 -2.1696065804 2.8440813161 -0.0072292328 -2.1004968553 2.4813951507 0.3897466705 -2.1217761893 2.4749934443 0.3870588385 -2.1193642376 2.9787061516 -0.0417115170 -2.2721428845 2.7321963703 0.8812841691 -2.3539568979 2.7253587083 0.8752856093 -2.3532697698
        </DataArray>
      </Points>
      <Cells>
        <DataArray type="Int32" Name="connectivity" format="ascii">
 0 1 2 3 4 5 6 7 8 9 10 11 12 13 14 15 16 17 18 19 20 21 22 23 24 25 26 27 28 29 30 31 32 33 34 35 36 37 38 39 40 41 42 43 44 45 46 47 48 49 50 51 52 53 54 55 56 57 58 59 60 61 62 63 64 65 66 67 68 69 70 71 72 73 74 75 76 77 78 79 80 81 82 83 84 85 86 87 88 89 90 91 92 93 94 95 96 97 98 99 100 101 102 103 104 105 106 107 108 109 110 111 112 113 114 115 116 117 118 119 120 121 122 123 124 125 126 127 128 129 130 131 132 133 134 135 136 137 138 139 140 141 142 143 144 145 146 147 148 149 150 151 152 153 154 155 156 157 158 159 160 161 162 163 164 165 166 167 168 169 170 171 172 173 174 175 176 177 178 179 180 181 182 183 184 185 186 187 188 189 190 191 192 193 194 195 196 197 198 199 200 201 202 203 204 205 206 207 208 209 210 211 212 213 214 215 216 217 218 219 220 221 222 223 224 225 226 227 228 229 230 231 232 233 234 235 236 237 238 239 240 241 242 243 244 245 246 247 248 249 250 251 252 253 254 255 256 257 258 259 260 261 262 263 264 265 266 267 268 269 270 271 272
        </DataArray>
        <DataArray type="Int32" Name="offsets" format="ascii">
 1 2 3 4 5 6 7 8 9 10 11 12 13 14 15 16 17 18 19 20 21 22 23 24 25 26 27 28 29 30 31 32 33 34 35 36 37 38 39 40 41 42 43 44 45 46 47 48 49 50 51 52 53 54 55 56 57 58 59 60 61 62 63 64 65 66 67 68 69 70 71 72 73 74 75 76 77 78 79 80 81 82 83 84 85 86 87 88 89 90 91 92 93 94 95 96 97 98 99 100 101 102 103 104 105 106 107 108 109 110 111 112 113 114 115 116 117 118 119 120 121 122 123 124 125 126 127 128 129 130 131 132 133 134 135 136 137 138 139 140 141 142 143 144 145 146 147 148 149 150 151 152 153 154 155 156 157 158 159 160 161 162 163 164 165 166 167 168 169 170 171 172 173 174 175 176 177 178 179 180 181 182 183 184 185 186 187 188 189 190 191 192 193 194 195 196 197 198 199 200 201 202 203 204 205 206 207 208 209 210 211 212 213 214 215 216 217 218 219 220 221 222 223 224 225 226 227 228 229 230 231 232 233 234 235 236 237 238 239 240 241 242 243 244 245 246 247 248 249 250 251 252 253 254 255 256 257 258 259 260 261 262 263 264 265 266 267 268 269 270 271 272 273
        </DataArray>
        <DataArray type="UInt8" Name="types" format="ascii">
 1 1 1 1 1 1 1 1 1 1 1 1 1 1 1 1 1 1 1 1 1 1 1 1 1 1 1 1 1 1 1 1 1 1 1 1 1 1 1 1 1 1 1 1 1 1 1 1 1 1 1 1 1 1 1 1 1 1 1 1 1 1 1 1 1 1 1 1 1 1 1 1 1 1 1 1 1 1 1 1 1 1 1 1 1 1 1 1 1 1 1 1 1 1 1 1 1 1 1 1 1 1 1 1 1 1 1 1 1 1 1 1 1 1 1 1 1 1 1 1 1 1 1 1 1 1 1 1 1 1 1 1 1 1 1 1 1 1 1 1 1 1 1 1 1 1 1 1 1 1 1 1 1 1 1 1 1 1 1 1 1 1 1 1 1 1 1 1 1 1 1 1 1 1 1 1 1 1 1 1 1 1 1 1 1 1 1 1 1 1 1 1 1 1 1 1 1 1 1 1 1 1 1 1 1 1 1 1 1 1 1 1 1 1 1 1 1 1 1 1 1 1 1 1 1 1 1 1 1 1 1 1 1 1 1 1 1 1 1 1 1 1 1 1 1 1 1 1 1 1 1 1 1 1 1 1 1 1 1 1 1 1 1 1 1 1 1 1 1 1 1 1 1
        </DataArray>
      </Cells>
      <PointData Scalars="overlap">
        <DataArray type="Float32" Name="overlap" format="ascii">
 0.0001408316 0.0006398949 0.0004515641 0.0001066939 0.0000620238 0.0000828735 0.0000469135 0.0001274258 0.0000538980 0.0002470917 0.0003002776 0.0000087177 0.0000565090 0.0000269005 0.0003284566 0.0002186425 0.0000865677 0.0001379291 0.0003451876 0.0001948571 0.0002622990 0.0002275939 0.0002851940 0.0002180006 0.0001313883 0.0004669912 0.0002860295 0.0001269490 0.0002138388 0.0003324846 0.0001136191 0.0001236836 0.0000929994 0.0002497065 0.0002375696 0.0005583275 0.0000542388 0.0001613552 0.0000758433 0.0001200855 0.0001693263 0.0002031265 0.0003723780 0.0001534334 0.0000521401 0.0001896816 0.0000463833 0.0000238069 0.0000146124 0.0000962778 0.0003066466 0.0001778133 0.0000533066 0.0001348267 0.0000285982 0.0000031590 0.0000454762 0.0000515479 0.0002273769 0.0000598351 0.0000025652 0.0000112988 0.0001557670 0.0000546370 0.0000158570 0.0001455309 0.0000572291 0.0001021529 0.0000825311 0.0000546086 0.0000033932 0.0000396390 0.0000460400 0.0000526310 0.0000134533 0.0000417151 0.0000061433 0.0000073146 0.0001067395 0.0000807786 0.0000263399 0.0000414363 0.0000262597 0.0000432485 0.0000306189 0.0000668166 0.0000065231 0.0000284327 0.0000812108 0.0000965516 0.0001094729 0.0000930184 0.0000355978 0.0001118581 0.0000446334 0.0000021593 0.0000453439 0.0000160454 0.0000554506 0.0000166430 0.0000152051 0.0000982298 0.0000517189 0.0000231469 0.0000326662 0.0000404589 0.0000919174 0.0000035984 0.0000030847 0.0002022370 0.0000494755 0.0000347182 0.0001834389 0.0000238512 0.0002827891 0.0001701109 0.0002891863 0.0002173774 0.0001395814 0.0002357392 0.0004850447 0.0002129491 0.0001202103 0.0004859023 0.0002854465 0.0000364284 0.0000164253 0.0000361887 0.0000463895 0.0001550008 0.0002730299 0.0000528120 0.0001998529 0.0001000264 0.0000430574 0.0000580234 0.0001471832 0.0000532380 0.0000399250 0.0000395433 0.0001491201 0.0002981288 0.0001421016 0.0000395218 0.0001347027 0.0000486619 0.0001236338 0.0002641843 0.0000713910 0.0000826314 0.0004220883 0.0001542158 0.0001562881 0.0000521592 0.0000224450 0.0000319600 0.0000827261 0.0000228525 0.0000745868 0.0000038243 0.0000357473 0.0000300724 0.0001247216 0.0000152458 0.0000054565 0.0000322860 0.0000365115 0.0000141868 0.0000137645 0.0000344505 0.0000223905 0.0000259078 0.0000199376 0.0000132485 0.0000085316 0.0001166620 0.0000789294 0.0000661484 0.0000180207 0.0000292243 0.0000844923 0.0000369430 0.0000076941 0.0002170731 0.0000406400 0.0001970281 0.0000095185 0.0000527585 0.0000286794 0.0000093907 0.0001562342 0.0001226068 0.0001539975 0.0001081351 0.0000575170 0.0000221997 0.0000366059 0.0000527731 0.0000591651 0.0002016614 0.0001122739 0.0000469814 0.0000187680 0.0000361343 0.0000098473 0.0000037466 0.0000646646 0.0000445090 0.0000785709 0.0000582892 0.0000359746 0.0000226403 0.0000219262 0.0001621422 0.0000113105 0.0000048890 0.0000004556 0.0000425116 0.0000956892 0.0000459233 0.0000376690 0.0001269491 0.0000523906 0.0001135024 0.0001286941 0.0000092026 0.0000421592 0.0000045530 0.0000183110 0.0000122849 0.0000526265 0.0000872993 0.0000372775 0.0000231980 0.0000237732 0.0000450386 0.0000134554 0.0000611663 0.0000363136 0.0000047594 0.0000176993 0.0000074240 0.0000014124 0.0000310226 0.0000320747 0.0000545183 0.0000046836 0.0000780772 0.0000405583 0.0000171110 0.0000117477 0.0000185359 0.0000307756 0.0000204004 0.0000188821 0.0000082541 0.0000529591 0.0000133565 0.0000589524 0.0000111550 0.0000120639 0.0000089996 0.0001489219 0.0000101465 0.0000175855 0.0000185843 0.0000329433 0.0000360742 0.0000217560 0.0000258282 0.0000818164 0.0000085954 0.0000562495
        </DataArray>
        <DataArray type="Float32" Name="contact normal" NumberOfComponents="3" format="ascii">
 0.5986588570 -0.0986651978 -0.7949042406 -0.5151243212 0.7473136484 -0.4197252012 0.5044115370 0.7586974005 0.4122465959 0.5168407856 0.7516269138 0.4097957842 -0.5672320095 0.7729792355 -0.2841671142 -0.6283852427 0.0600811953 -0.7755786464 -0.5236656069 0.0047057231 -0.8519109040 0.2612966199 -0.6981740587 -0.6665411166 -0.7334916952 0.6682157280 -0.1244093004 -0.6863536993 0.7131446653 -0.1426298910 -0.3193466109 -0.9283314725 -0.1903113744 -0.4333262163 0.3739665749 0.8199862139 0.5218639587 -0.5461089712 0.6553037465 0.5268837633 -0.5388329073 0.6573070805 0.5633378821 -0.4821632979 0.6709463352 -0.6887826445 0.0087461377 -0.7249151493 -0.1779578063 -0.1837017732 0.9667391984 -0.9137140043 0.3337636170 -0.2317942328 0.9231050257 -0.2134378666 0.3198771461 0.9507801929 -0.2000292155 0.2366544690 -0.9834078244 -0.1707435500 -0.0612836927 -0.9776079813 -0.1898396059 -0.0907940468 -0.9629598279 0.1661559972 0.2123689114 -0.9171793623 0.3984612157 0.0032675752 0.9234652768 0.0164425563 0.3833295252 0.8946859953 -0.1038637021 0.4344528756 -0.1180198535 -0.5820724619 0.8045265460 -0.0818440130 -0.6464096166 0.7585882711 0.1808485167 -0.9773290771 0.1100985429 0.3845396428 0.9231055832 -0.0023120074 0.1866577371 0.6217662401 -0.7606350188 0.2193013881 0.5870443955 -0.7792854284 -0.5328506658 -0.0696449699 -0.8433384529 -0.7620669895 0.6253995858 0.1677178035 -0.4770040755 0.5900832655 0.6513592340 -0.4149632555 0.6092628552 0.6757249958 -0.4510312466 0.6173993793 0.6445066493 0.8000984051 0.1692513485 0.5754967621 0.1256892402 -0.7501946033 0.6491612066 0.3252382659 -0.8007423314 -0.5030226527 0.3319062203 -0.7947168643 -0.5081961890 0.4274414262 -0.7358130705 -0.5252360921 0.4102584636 -0.7473758120 -0.5226063420 0.3983057253 -0.7551591889 -0.5206603006 0.0919485753 0.8509934400 -0.5170644297 0.6990236004 -0.4472737824 0.5579535551 -0.7603086579 0.2794652322 -0.5863701295 -0.7552780430 0.2590762324 -0.6020254011 -0.7546515558 0.3240821417 -0.5705013539 -0.7540019693 0.2905676915 -0.5891107255 0.3747727080 0.4926234027 0.7854091930 -0.1741516910 -0.3771901612 -0.9096146276 0.4558435233 -0.8899714523 -0.0125497553 -0.8933911146 0.3497275464 -0.2820336146 -0.7760054714 0.6247460210 0.0866482404 0.2075156648 -0.5422247672 -0.8142048579 -0.6024531848 -0.1550111405 -0.7829570272 -0.4636003108 -0.1413431006 -0.8746981649 0.4114953433 -0.7664095521 0.4932423146 0.7830056977 -0.4035255580 0.4733594843 -0.6090781389 0.7890085766 -0.0805561089 -0.0148250320 -0.4570404885 0.8893223320 0.1244228031 0.5854195222 0.8011260507 -0.3366915161 -0.8143655011 0.4727025001 0.7252281503 -0.4174291094 0.5475372760 0.7228180833 -0.3108650838 0.6171684682 -0.3239108492 0.6368568769 -0.6996392500 0.8651207192 0.4667598898 -0.1835792650 0.0250598361 0.9137753690 0.4054461488 -0.1563249077 0.6452758724 0.7477844420 -0.2965315758 0.6383284109 -0.7103561532 -0.2965737380 0.6383424816 -0.7103259069 -0.2468388265 0.6415449061 -0.7262855686 -0.2965892056 0.6383412036 -0.7103205973 -0.2964943469 0.6383490403 -0.7103531551 -0.2965933639 0.6383408599 -0.7103191699 -0.2965933276 0.6383408629 -0.7103191824 -0.2966927253 0.6383326439 -0.7102850572 0.6952975543 -0.5373174491 0.4773376895 0.6969777830 -0.5306638266 0.4823047514 -0.3061142172 -0.9077242277 -0.2869334633 0.2385926403 -0.5202095718 -0.8200338733 -0.2587274895 -0.2356754123 -0.9367588731 0.5287757626 0.0196265354 0.8485346145 0.5290935572 0.0192360342 0.8483454383 0.5292284574 0.0190705575 0.8482650257 0.5290482319 0.0192917366 0.8483724402 0.5296795582 0.0185154568 0.8479957214 0.5294918743 0.0187466001 0.8481078469 0.5295822790 0.0186452724 0.8480536325 0.5295751702 0.0188799397 0.8480528799 0.5291684151 0.0194405503 0.8482940843 -0.5495329061 -0.2045519322 -0.8100445001 0.5304647643 0.0199949826 0.8474711408 -0.4985715220 -0.0951544115 -0.8616101644 -0.4826385931 -0.1221446848 -0.8672604364 -0.2232641262 -0.2647435626 -0.9381172507 0.8727720373 0.4868315485 0.0355529786 0.8931818302 0.4372818964 -0.1049321746 -0.2500262354 0.4525692133 -0.8559602729 -0.5289339041 -0.0137486351 -0.8485516485 -0.5296070979 -0.0101343994 -0.8481825368 -0.5496566307 0.0172718039 -0.8352121127 -0.5299298245 -0.0091851897 -0.8479917532 0.6056691194 -0.7562544545 0.2474754896 0.8192971797 0.1142364192 0.5618738043 -0.6358026719 0.5013327454 -0.5868734453 -0.0490490096 0.5825078681 0.8113438102 0.6963148537 -0.5907674836 0.4076020176 0.3777272056 0.2105399400 -0.9016624046 0.7007657456 0.7100619398 -0.0688433830 -0.7914514199 0.2734264358 0.5466650108 -0.7934723579 0.2716709985 0.5446067259 -0.7889050584 0.2763857960 0.5488530775 0.5789757683 -0.6959431620 0.4247942738 0.1867924414 0.9297730821 -0.3172232645 -0.7986553061 -0.4439134897 -0.4063133221 -0.3723985645 0.6209588899 -0.6897313725 -0.3348760556 0.5824983631 -0.7406441010 0.7287726102 -0.1811284778 0.6603657752 0.7287300443 -0.1810986877 0.6604209171 0.6981794744 -0.1601958932 0.6977698025 0.7572591025 -0.2014960033 0.6212551910 0.7571988854 -0.2014519231 0.6213428769 0.7287428087 -0.1811076105 0.6604043854 0.7287943926 -0.1811436729 0.6603375675 -0.4045030535 -0.4937452335 -0.7698005742 -0.4046326124 -0.4935145502 -0.7698804048 -0.4048409264 -0.4934240321 -0.7698289088 -0.7438057357 0.4102908090 -0.5276499594 -0.7438109571 0.4103000446 -0.5276354173 -0.4049630209 -0.4932291984 -0.7698895437 -0.7438155809 0.4103082229 -0.5276225391 0.2052043686 -0.9377684316 0.2801455616 0.8014494240 -0.0468060237 0.5962281584 -0.4052859408 -0.4929608981 -0.7698914593 0.2696998046 -0.9506066077 0.1536525065 -0.4062599424 -0.4930944247 -0.7692923680 0.0992759972 -0.8828510093 0.4590407081 0.5484322547 0.0537966861 0.8344626886 -0.7076017366 0.4232150958 0.5658522466 0.6421224025 0.2238118141 0.7332033089 -0.8937071216 0.4290651443 0.1311132439 -0.1072951150 -0.7059505555 -0.7000868314 -0.3427703642 -0.4419851000 -0.8289497264 -0.2907077958 -0.4672569196 -0.8349610461 -0.0211034914 -0.6975139705 -0.7162603603 -0.3154333284 -0.4175866731 -0.8521286205 -0.9079028733 0.3454197516 -0.2374817211 -0.3010884712 -0.4258947070 -0.8532053862 -0.9072066283 0.3442266174 -0.2418350046 -0.9201650412 0.3802441848 -0.0933308997 -0.9065908108 0.3431915939 -0.2455863018 -0.9191450656 0.3728340106 -0.1271501035 -0.4628129230 0.3390509870 0.8190534943 -0.8815981835 0.4542054637 -0.1283823961 -0.0160009709 -0.4334134427 -0.9010531375 -0.5024667903 0.0438692663 -0.8634828383 0.6912480183 0.3013430753 -0.6567865164 0.7013989808 0.0778765694 -0.7085017358 -0.8530405898 0.5129955021 0.0956941322 0.6197246545 -0.4671445653 -0.6306483233 0.3023330241 0.9530215600 0.0185647167 -0.0354621914 -0.3414050756 0.9392470428 -0.0312631586 -0.3459128176 0.9377456678 -0.0124274959 -0.3438991287 0.9389243562 -0.0033231081 -0.3524013344 0.9358430726 -0.0067430219 -0.3486685814 0.9372218265 0.0007046427 -0.3563212106 0.9343632582 -0.1824523296 -0.3638748117 -0.9134036724 0.4499131767 -0.5791994956 -0.6797838463 -0.3877108763 0.3990960156 -0.8309047158 0.9627720751 0.2590124535 -0.0773464949 0.6511678248 -0.6640947118 0.3673672246 -0.0623080542 0.7635659765 0.6427166607 0.5843326298 0.7610306667 0.2817582334 0.5381441595 0.8083904930 0.2385491027 0.0522925770 0.9123817228 0.4059865493 -0.3705718694 0.6593312720 -0.6541855726 -0.3062556368 0.6882012056 -0.6577131484 -0.3308207566 0.6787912064 -0.6555914315 -0.8016704031 0.5030564533 -0.3228912658 -0.7854959126 0.5411657537 -0.3002262452 0.4356253696 -0.6331068123 0.6398486552 0.4375244339 -0.6238140643 0.6476329076 -0.7349184522 0.6738864308 -0.0759733302 -0.3745526662 -0.7311084988 0.5702549107 -0.6002834528 -0.7645113858 0.2349087422 0.1674175874 -0.6060798827 -0.7775850611 -0.6869770526 0.4929770185 -0.5338878051 -0.7357427196 0.6762594496 -0.0368212913 -0.7395682082 0.4321966351 -0.5159892770 -0.8263855213 0.3295021088 -0.4566347890 -0.6551243043 0.6939378338 0.2987681855 -0.8055738268 0.4291681220 -0.4084917779 -0.2784581049 0.5611196787 -0.7794907248 -0.3173401657 0.5986415813 -0.7354750005 -0.4215849202 0.2728839498 0.8647545923 -0.4210449910 0.2672830848 0.8667645979 0.6665936413 0.7448603833 -0.0289123966 -0.6325966777 0.1329723593 0.7629808615 -0.2047820221 -0.2310703856 -0.9511418403 0.1868586160 -0.5391613918 -0.8212118187 0.8297317628 -0.4300693745 0.3557886100 -0.1411425142 0.0012004776 -0.9899885603 0.8930750713 0.3787279986 0.2428621421 -0.7148876542 0.4986665623 -0.4901706861 0.8766658694 -0.2766275899 0.3936167297 0.5198600886 0.0951152210 0.8489396816 -0.7563994658 -0.1327446942 -0.6404987856 0.7621860301 0.0735780343 0.6431630652 0.0417335589 -0.1767429217 -0.9833718776 -0.2697675433 -0.6953720917 -0.6660954336 0.3143745127 0.6495146280 -0.6923145338 0.2215288984 0.4200507901 0.8800467493 0.2222282343 0.4205070044 0.8796524718 0.2210046752 0.4195290485 0.8804273456 -0.0731962515 0.1802889554 0.9808864365 -0.2771131627 0.9009422929 -0.3339330471 -0.9136937358 -0.0798861096 -0.3984745497 -0.8692093756 0.1520441978 -0.4704865814 0.3770129612 -0.4031192963 0.8338801233 -0.4365664011 0.4799351075 -0.7609678509 -0.4398555599 0.2342340769 -0.8669841311 0.7625497264 -0.4631286870 0.4516965066 0.6984759897 0.1270934426 0.7042574449 -0.8426108294 0.1021561751 -0.5287448403 0.1905330262 -0.6117302536 -0.7677781338 0.1943177885 -0.6089386167 -0.7690476956 0.1899363911 -0.6097055790 -0.7695344530 -0.4229997714 0.9057849221 0.0249973658 -0.5219328506 0.4629232106 -0.7164413448 -0.5255670950 0.4483795900 -0.7230041299 0.6882722079 0.3959284568 0.6078832330 -0.2232184457 0.8445038675 -0.4868128421 -0.2301705737 0.8684816335 -0.4390457371 -0.4263137985 -0.8873463934 0.1757069247 0.9948966365 -0.0887654642 -0.0479726482 0.8372527556 0.2432542944 -0.4897296922 0.4494780008 -0.7098082763 0.5423483546 0.4494040662 -0.7098547246 0.5423488317 0.4881211054 -0.6838840848 0.5422548708 0.4882702382 -0.6837880263 0.5422417446 -0.7245820886 0.3638881253 -0.5852915762 -0.3394906733 0.5966577728 -0.7271489427 0.4196351926 -0.7241216130 0.5473154435 0.4197018823 -0.7239112250 0.5475425722 0.4197952134 -0.7239164489 0.5474641119 0.4197679972 -0.7238992456 0.5475077267 0.4197577614 -0.7238978916 0.5475173643 0.4197709655 -0.7238986699 0.5475062120 0.4198091808 -0.7239009012 0.5474739601 -0.4105964849 0.8177393557 -0.4033768371 -0.3757569369 0.9010470525 -0.2166124041 -0.3175041941 0.9282707400 -0.1936608377 0.8698166778 -0.2897983632 -0.3992941969 0.6052756499 -0.1660834412 -0.7784970637 0.5262809201 -0.3436527254 -0.7777732301 -0.4492855603 -0.8722452214 0.1932116952 -0.5544610810 0.8233094014 -0.1213859105 0.3142520205 -0.0420053073 0.9484098385 0.3244048906 -0.0809125066 0.9424513957 0.2057346290 -0.2526535474 0.9454308264 -0.5389546819 -0.0434997464 -0.8412108076 0.6366296466 0.3079283349 0.7070239273 -0.4937347247 -0.0895262185 -0.8649919525 -0.9113847009 0.3288055784 0.2475173098 -0.9139588652 0.3861614182 -0.1247339243 -0.4567934087 0.5619163553 -0.6896301845 -0.4980072507 0.5436829368 -0.6755720854 -0.0574695362 0.2302482509 -0.9714334745 0.3923564914 -0.3045812176 0.8679208867 0.3867886360 -0.3540618342 0.8514897349
        </DataArray>
        <DataArray type="Float32" Name="contact force" NumberOfComponents="3" format="ascii">