<?xml version="1.0"?>
<VTKFile type="UnstructuredGrid" version="0.1" byte_order="LittleEndian">
  <UnstructuredGrid>
    <FieldData>
      <DataArray type="Float32" Name="TIME"  NumberOfTuples="1" format="ascii"> 2.5000000000 </DataArray>
      <DataArray type="Int32"   Name="STEP"  NumberOfTuples="1" format="ascii"> 250000 </DataArray>
    </FieldData>
    <Piece NumberOfPoints="305" NumberOfCells="305">
      <Points>
        <DataArray type="Float32" NumberOfComponents="3" format="ascii">
 8.6548214748 0.1532040752 -10.5841234319 8.6627462305 0.1120457235 -10.7133261018 8.6822496886 0.1036719649 -10.7171017741 8.7723092867 0.1149727951 -10.7895851743 8.8171005909 0.3209144199 -10.5899195025 8.8252144988 0.3188969320 -10.6020567769 8.8186256560 0.4086756118 -10.5936659338 8.8462704002 0.2094700237 -10.8543068451 8.8527789416 0.2172511936 -10.8561510279 8.8388394568 0.4496224020 -10.6972065089 8.8397368316 0.4540202185 -10.7120479845 8.8557232426 0.2910440516 -10.9351968566 8.7571025195 0.4158061497 -10.8618448807 8.7627475675 0.4166579403 -10.8746835871 8.7763728335 0.4367133990 -10.8867853060 8.9382459447 0.4224424215 -10.8054950948 8.9454441613 0.4180076872 -10.8189869556 8.9266136502 0.4278167091 -10.9144984959 9.3279343193 0.2811497175 -10.6176754142 9.2433122352 0.3564779863 -10.6678299425 9.2439773256 0.3461772168 -10.6693856336 9.2411841465 0.3434658962 -10.6782361343 9.2814084826 0.5758198040 -10.7438669948 9.2818921882 0.5572104379 -10.7500097677 9.2757042163 0.3469379962 -10.8232719413 9.2728751763 0.3617323995 -10.8280203806 9.2022908214 0.5301407709 -10.8369740936 9.2021164216 0.5085858645 -10.8249501819 8.5505107910 0.6617817814 -10.2671825472 8.5437842122 0.7244068851 -10.0928472762 8.5462665488 0.7241048144 -10.0827770717 8.5488213221 0.7235391941 -10.0719361241 8.5514382178 0.5699877651 -10.1860742899 8.5827178025 0.6109567235 -10.0503572067 8.5889495735 0.6067603953 -10.0567783542 8.6715866645 0.6619883735 -10.1492768924 8.6724955457 0.6607381492 -10.1417963742 8.6764378770 0.6541270859 -10.1479900400 8.8719385541 0.7000284858 -10.4869349328 8.8659451568 0.7022957674 -10.4821020906 8.8686031751 0.7096267674 -10.4811266990 8.9245304218 0.7293032695 -10.5774369680 8.9304418222 0.7434891124 -10.5848644957 8.8201951067 0.7139594809 -10.5915009098 8.8223688597 0.7189141247 -10.5952191328 8.8162902024 0.7205840183 -10.5959104504 8.7114268510 0.7074985784 -10.4922543203 8.9049452847 0.8428354524 -10.6057291357 8.9056037227 0.8522603323 -10.5972666429 8.8911242676 0.8418145359 -10.6061287036 8.7863483578 0.7938143885 -10.4751632231 8.7794963403 0.7951210966 -10.4779322573 8.7869048919 0.8002816632 -10.4800372823 8.7803957459 0.8019523393 -10.4832406997 8.7740875610 0.8043512995 -10.4871496896 8.8376595427 0.3098042305 -10.2647587120 8.9396408712 0.3950074081 -10.2009203641 8.9431098040 0.3974527160 -10.2125750770 8.7871588935 0.3284414411 -10.3149412467 8.9185923531 0.3194635706 -10.2638562717 8.9468548993 0.4134513590 -10.2101005393 8.9496842128 0.4145567956 -10.2204326793 8.7989186279 0.3377373592 -10.3308070180 8.9521950940 0.4148791397 -10.2305154561 8.9573523411 0.4288357054 -10.2357256667 8.9680862930 0.4258819621 -10.3600796837 8.9703554290 0.7001321200 -10.1999544741 8.9772206141 0.6992240155 -10.2096949013 8.9410933215 0.5378565095 -10.4860632364 8.9827592084 0.7203105277 -10.2203103514 8.8450633960 0.8075642868 -10.3163899813 9.0627188004 0.6923856477 -10.3909194895 9.1962306821 0.3187843733 -10.6534009068 9.1973124361 0.3195573020 -10.6670950043 9.1919917101 0.3045858765 -10.6664896697 9.1690869909 0.1293291793 -10.5545314427 9.1854452153 0.1722430329 -10.6865669298 8.8494428528 0.0739205655 -10.7738552770 8.8615030039 0.0693710119 -10.7841679742 8.8754130377 0.0909129555 -10.5193280641 8.9568120446 0.2425088175 -10.7501796452 9.0922540186 0.1431450256 -10.6993938430 9.0337910436 0.3812800669 -10.7312641292 8.9278432731 0.2733376391 -10.5906087568 8.9268616981 0.1955852118 -10.5164478918 9.0635060323 0.2355193390 -10.4161509450 9.1633418980 0.5119693270 -10.4222226492 8.5487875098 0.3164624599 -10.3321235359 8.5480306489 0.3088623391 -10.3219568019 8.5801428576 0.4319850299 -10.3546927775 8.5778531601 0.2913736458 -10.2303940873 8.5862652875 0.3039345844 -10.2208314293 8.5869857080 0.3131027556 -10.2069095605 8.5939062857 0.3217896560 -10.2019146232 8.5937274617 0.3280927488 -10.1913247315 8.5999262095 0.3350412717 -10.1883456643 8.5367085884 0.4500977870 -10.2019959682 8.5365413312 0.4518268518 -10.1944554063 8.5398866684 0.4576502928 -10.1964204106 8.6354552284 0.4784743408 -10.0893111150 8.6278021231 0.4879754064 -10.0935801187 8.7196824844 0.1778326489 -10.3404051129 8.7173976793 0.1683520632 -10.3380418322 8.7235153328 0.1798303260 -10.3454700533 8.7137830673 0.1610777680 -10.3336895221 8.7215879134 0.1691183104 -10.3436753304 8.7269140937 0.1835005517 -10.3498091974 8.7185596896 0.1609192780 -10.3401803942 8.7300260633 0.1890434647 -10.3536098002 8.7329876351 0.1969295167 -10.3570141310 8.7359511905 0.2080445125 -10.3601384890 8.7407081986 0.2080093400 -10.3666359103 8.8194329912 0.2072288384 -10.3322655581 8.6985711200 0.0745535929 -10.1916079523 8.7405346333 -0.0916731657 -10.2700715361 8.8404487820 0.0292341776 -10.3624658393 8.8437861358 0.0404306292 -10.3658857586 9.1654632196 0.2197309365 -10.8447260838 9.2637074499 0.1322162315 -10.7001140473 8.9138953305 0.1251829970 -10.3145719577 8.9172354322 0.1304767619 -10.3184712986 8.9212950302 0.1314605235 -10.3203235453 8.9166608051 0.1349669195 -10.3206782574 8.9992005232 0.1392920999 -10.2930638739 8.9431460919 0.2440366787 -10.2939821275 9.1465725588 0.6807115658 -10.4385920446 9.0351453998 0.6169622222 -10.5785994493 9.1799233645 0.7898390342 -10.4721039178 9.1274728987 0.6820200954 -10.5869454461 9.1187084975 0.6789118736 -10.5928206165 9.1308211641 0.6883081589 -10.5851841065 9.1226155333 0.6854510020 -10.5906534542 9.1260613530 0.6916552058 -10.5887079994 9.1177372925 0.6893423527 -10.5942113386 9.0479023325 0.7480442133 -10.5592931738 8.8198716475 0.4693360577 -10.5516524438 8.8875989066 0.4832520618 -10.5781993359 8.8927319102 0.5015626100 -10.5710563350 8.8974784184 0.4974155706 -10.5848155224 8.7371776463 0.5312066545 -10.6502062695 8.7445692889 0.5480998151 -10.6641985081 8.9330569341 0.6519510949 -10.6516007333 8.9384282065 0.6568132604 -10.6597895211 8.9609004581 0.4989223276 -10.7878758345 8.9663583378 0.5105408442 -10.7907163952 8.9439708047 0.6619378195 -10.6683023765 8.9715807456 0.5218692430 -10.7935972299 8.9499125085 0.6676556699 -10.6775537849 8.8163634512 0.7500801981 -10.7107207763 8.8202219423 0.7517239086 -10.7224677081 8.9565919411 0.6744586262 -10.6881554079 8.8795114314 0.7820650583 -10.7158168100 8.9533034826 0.6140477283 -10.8719420090 8.8546533124 0.6913700047 -10.8640936600 9.0261379255 0.7198256073 -10.8118254280 8.9595080018 0.0696606137 -10.4357557384 8.9604320105 0.0560712549 -10.4335030459 8.9845193860 -0.0349954338 -10.3954360430 8.8445480747 0.0246626544 -10.2523409234 8.9274737436 -0.0132124901 -10.2821364489 8.8658567384 -0.0804083156 -10.2413204440 9.3157411180 0.4668968690 -10.7655311576 8.6528805082 0.0275136125 -10.4753219773 8.6583783083 0.0277090255 -10.4779158774 8.6619890495 -0.0032677513 -10.5192221176 8.6405505771 0.0962497200 -10.5267622850 8.6435042385 0.0945587607 -10.5292312639 8.6464829584 0.0928896569 -10.5316415907 8.6469736797 0.0977511237 -10.5288200579 8.6500405148 0.0961078386 -10.5312777023 8.6927378911 0.1141851532 -10.4708752685 8.5916730528 0.7349204783 -10.0017577498 8.8652683452 0.3388397803 -10.5449754559 8.8726503214 0.3353687580 -10.5426844093 8.8054580695 0.6211698081 -10.8881104019 8.7996014760 0.6237604033 -10.8805164401 8.8650031180 0.6325547878 -10.9401413395 8.9822110414 0.1021329826 -10.8500234692 8.9761551608 0.1023435031 -10.7999381198 8.9853746162 0.1080969376 -10.8021942507 8.9807644672 0.1081392644 -10.7956912944 9.0413104609 0.1612845066 -10.8780025239 8.9068672286 0.2193967300 -10.8454575560 8.9110243170 0.2238463651 -10.8467838137 9.0461166459 0.0609329347 -10.3448809110 9.0438621409 0.0635733171 -10.3537420045 9.0525001168 0.0644179894 -10.3551084491 9.1017318949 0.1655243893 -10.3708713049 9.0909492027 0.1705002037 -10.3628867864 9.0996799154 0.1717707215 -10.3616966404 9.1224136834 0.6486301343 -10.8241869544 9.1058769830 0.5116287017 -10.8122068934 9.1039710667 0.5075949159 -10.8170204925 9.1022119596 0.5039432854 -10.8118369957 9.0486232572 0.4494856969 -10.8813738936 9.0495127112 0.4422602263 -10.8735595040 8.5943437602 0.7951267244 -10.3328925579 8.6001263454 0.7884235157 -10.3366154516 8.5961091951 0.7857780026 -10.3436511463 8.9983239484 0.5848086961 -10.5913691487 8.9933532059 0.5867967412 -10.5824036574 8.6764975521 0.7241298873 -10.0448335268 8.6844175703 0.7235670394 -10.0440946257 8.5658785499 0.1640799401 -10.3869718179 8.6269732102 0.2099999011 -10.3917756786 8.6069090333 0.1908224709 -10.5042902658 8.5776198641 0.3133137202 -10.4059196489 9.0237244564 -0.0398073846 -10.4873664573 9.0139965373 -0.0493847562 -10.4889206184 9.0102917758 -0.0567069333 -10.4942752771 8.9563378778 -0.0087721087 -10.5119468340 8.9954326169 0.0176006917 -10.6226276838 9.0268060645 -0.0033120463 -10.6234745573 9.0233225536 -0.0015120694 -10.6316740350 8.9019597288 0.7359220853 -10.0461142960 9.1003563090 0.1111209178 -10.5107373005 9.0974024334 0.1058510776 -10.5060874190 8.9922147337 0.1026056231 -10.4774845147 8.8137684421 0.1267560406 -10.8869448451 8.8113341213 0.1222860803 -10.8918045253 9.0484034746 0.2601799224 -11.0174057677 8.8196935415 0.5197779179 -10.9788751790 8.8258859115 0.5359327145 -10.9735313614 8.5832041407 0.7836396972 -10.3972591334 8.5798861157 0.7926159523 -10.3929505653 8.5785191919 0.8020439761 -10.3915304131 8.6761333129 0.7828359875 -10.3045169976 9.0632058862 0.6972224236 -10.2756877073 9.0869435529 0.7159130107 -10.2043681744 9.0596292983 0.2093410276 -11.0007266440 8.6673734512 0.8012429689 -10.4639495007 8.6193988430 -0.0181505719 -10.5988939738 8.6815405325 0.7001720507 -10.3323156296 8.7454563483 0.8283728230 -10.3143393531 8.5754894281 -0.0439640042 -10.3868169754 8.5715004649 -0.0472023194 -10.3793073852 8.5314239514 0.0729769452 -10.3014061692 8.5712513787 0.0216117546 -10.4074991798 8.8270225582 0.9061792504 -10.7607202330 8.8265621308 0.9089611938 -10.7536803694 8.9775096744 0.9024201502 -10.6325682831 9.0814068899 0.8947156385 -10.6192314223 9.0797164711 0.8781988933 -10.6163927709 9.0801337894 0.8731008258 -10.6208229972 9.1407576582 0.6714402584 -10.6487662243 9.1420834730 0.6768236562 -10.6515479622 9.1374500097 0.6798917641 -10.6528028642 8.8777373900 -0.0923809864 -10.1539520709 8.8249201273 0.0431836204 -10.1880695827 9.0263656898 0.0630077798 -10.7498975164 9.0257346584 0.0589825967 -10.7576320260 8.9914119169 0.0689600501 -10.8296059940 9.1072706102 0.2304210404 -10.8729027888 9.1025721969 0.2322359271 -10.8638067159 9.0859695827 0.0664453198 -10.8989679708 9.0876689547 0.0675598726 -10.8889993100 8.6841267138 0.2531591527 -10.5384807991 8.9518147743 0.8807690414 -10.7486245764 8.9516051939 0.8891245251 -10.7465007751 8.8828896235 0.8940268628 -10.7070507021 8.8830503654 0.8956461558 -10.7018507228 8.8862774915 0.8988116977 -10.7017505326 8.8831319955 0.8970806080 -10.6969599185 8.8862957576 0.9002298373 -10.6968210193 8.8831973025 0.8984405437 -10.6922066253 8.8863313808 0.9016196028 -10.6919747623 8.8896121206 0.9049475705 -10.6916371554 8.8864419237 0.9030855995 -10.6870503390 8.8897432628 0.9065370193 -10.6864768251 8.8866975767 0.9047510725 -10.6818575669 8.8900768452 0.9084129701 -10.6809333014 8.8907404930 0.9108191121 -10.6746546736 9.1129298211 0.0123913206 -10.5821774925 9.1054319407 0.0150321088 -10.5780815764 8.5632696536 0.0584143822 -10.2955350581 9.0219302417 0.3629666812 -10.1588181764 9.0265603109 0.3715692220 -10.1650083284 8.9009209938 0.4388142452 -9.9692863613 8.6830201580 0.5096646540 -10.6360644739 8.6897598920 0.5040518182 -10.6426640571 8.8522767402 0.1890926690 -11.0371200017 8.8555418682 0.1934016385 -11.0318962547 8.8658528200 0.2035383899 -11.0273057596 8.8712880127 0.2096019875 -11.0223953611 9.0380465264 0.0355274748 -10.6855020744 9.0372806179 0.0357747741 -10.6823525193 9.0306184676 0.0313885064 -10.6759978709 9.0532792017 0.0454364411 -10.7009109139 8.9000751892 0.3542170135 -10.9836808475 8.5846119324 0.3994272139 -10.4405927410 8.5525709135 0.4991481150 -10.2672881757 8.5444757601 0.4861894256 -10.2685870058 8.6722534256 0.5515001347 -10.3397769416 8.6338562342 0.4380270041 -10.4419289870 8.8478011019 0.4495552018 -11.0323773325 8.8448972261 0.4639292338 -11.0288738640 8.6807217882 0.6381044258 -10.3840437981 8.6828994265 0.6352278177 -10.3867532657 8.6807720765 0.4401215319 -10.5876218284 8.8972300876 0.2969522583 -10.1021249417 8.7971818612 0.1667953543 -10.1360752082 9.0339982592 -0.0607509455 -10.3528747499 9.0961111526 -0.0502944211 -10.5685357705 8.7781111694 0.8344481667 -10.3781125054 8.7724136079 0.8275721804 -10.3762450904
        </DataArray>
      </Points>
      <Cells>
        <DataArray type="Int32" Name="connectivity" format="ascii">
 0 1 2 3 4 5 6 7 8 9 10 11 12 13 14 15 16 17 18 19 20 21 22 23 24 25 26 27 28 29 30 31 32 33 34 35 36 37 38 39 40 41 42 43 44 45 46 47 48 49 50 51 52 53 54 55 56 57 58 59 60 61 62 63 64 65 66 67 68 69 70 71 72 73 74 75 76 77 78 79 80 81 82 83 84 85 86 87 88 89 90 91 92 93 94 95 96 97 98 99 100 101 102 103 104 105 106 107 108 109 110 111 112 113 114 115 116 117 118 119 120 121 122 123 124 125 126 127 128 129 130 131 132 133 134 135 136 137 138 139 140 141 142 143 144 145 146 147 148 149 150 151 152 153 154 155 156 157 158 159 160 161 162 163 164 165 166 167 168 169 170 171 172 173 174 175 176 177 178 179 180 181 182 183 184 185 186 187 188 189 190 191 192 193 194 195 196 197 198 199 200 201 202 203 204 205 206 207 208 209 210 211 212 213 214 215 216 217 218 219 220 221 222 223 224 225 226 227 228 229 230 231 232 233 234 235 236 237 238 239 240 241 242 243 244 245 246 247 248 249 250 251 252 253 254 255 256 257 258 259 260 261 262 263 264 265 266 267 268 269 270 271 272 273 274 275 276 277 278 279 280 281 282 283 284 285 286 287 288 289 290 291 292 293 294 295 296 297 298 299 300 301 302 303 304
        </DataArray>
        <DataArray type="Int32" Name="offsets" format="ascii">
 1 2 3 4 5 6 7 8 9 10 11 12 13 14 15 16 17 18 19 20 21 22 23 24 25 26 27 28 29 30 31 32 33 34 35 36 37 38 39 40 41 42 43 44 45 46 47 48 49 50 51 52 53 54 55 56 57 58 59 60 61 62 63 64 65 66 67 68 69 70 71 72 73 74 75 76 77 78 79 80 81 82 83 84 85 86 87 88 89 90 91 92 93 94 95 96 97 98 99 100 101 102 103 104 105 106 107 108 109 110 111 112 113 114 115 116 117 118 119 120 121 122 123 124 125 126 127 128 129 130 131 132 133 134 135 136 137 138 139 140 141 142 143 144 145 146 147 148 149 150 151 152 153 154 155 156 157 158 159 160 161 162 163 164 165 166 167 168 169 170 171 172 173 174 175 176 177 178 179 180 181 182 183 184 185 186 187 188 189 190 191 192 193 194 195 196 197 198 199 200 201 202 203 204 205 206 207 208 209 210 211 212 213 214 215 216 217 218 219 220 221 222 223 224 225 226 227 228 229 230 231 232 233 234 235 236 237 238 239 240 241 242 243 244 245 246 247 248 249 250 251 252 253 254 255 256 257 258 259 260 261 262 263 264 265 266 267 268 269 270 271 272 273 274 275 276 277 278 279 280 281 282 283 284 285 286 287 288 289 290 291 292 293 294 295 296 297 298 299 300 301 302 303 304 305
        </DataArray>
        <DataArray type="UInt8" Name="types" format="ascii">
 1 1 1 1 1 1 1 1 1 1 1 1 1 1 1 1 1 1 1 1 1 1 1 1 1 1 1 1 1 1 1 1 1 1 1 1 1 1 1 1 1 1 1 1 1 1 1 1 1 1 1 1 1 1 1 1 1 1 1 1 1 1 1 1 1 1 1 1 1 1 1 1 1 1 1 1 1 1 1 1 1 1 1 1 1 1 1 1 1 1 1 1 1 1 1 1 1 1 1 1 1 1 1 1 1 1 1 1 1 1 1 1 1 1 1 1 1 1 1 1 1 1 1 1 1 1 1 1 1 1 1 1 1 1 1 1 1 1 1 1 1 1 1 1 1 1 1 1 1 1 1 1 1 1 1 1 1 1 1 1 1 1 1 1 1 1 1 1 1 1 1 1 1 1 1 1 1 1 1 1 1 1 1 1 1 1 1 1 1 1 1 1 1 1 1 1 1 1 1 1 1 1 1 1 1 1 1 1 1 1 1 1 1 1 1 1 1 1 1 1 1 1 1 1 1 1 1 1 1 1 1 1 1 1 1 1 1 1 1 1 1 1 1 1 1 1 1 1 1 1 1 1 1 1 1 1 1 1 1 1 1 1 1 1 1 1 1 1 1 1 1 1 1 1 1 1 1 1 1 1 1 1 1 1 1 1 1 1 1 1 1 1 1 1 1 1 1 1 1 1 1 1 1 1 1
        </DataArray>
      </Cells>
      <PointData Scalars="overlap">
        <DataArray type="Float32" Name="overlap" format="ascii">
 0.0001968256 0.0000554408 0.0001997308 0.0000243956 0.0000540784 0.0000311011 0.0000916136 0.0000546527 0.0002492686 0.0004126627 0.0000952572 0.0000426426 0.0000748635 0.0000259883 0.0003025126 0.0000082146 0.0002425210 0.0000274584 0.0005368144 0.0000746094 0.0005331631 0.0003124011 0.0001396630 0.0007709171 0.0004200195 0.0003924868 0.0001326059 0.0005006104 0.0004588893 0.0000629114 0.0004197922 0.0002762438 0.0004964703 0.0002358045 0.0001833479 0.0000958680 0.0002185803 0.0000867645 0.0003160557 0.0001994894 0.0002965696 0.0004112315 0.0000449021 0.0003494129 0.0006030499 0.0001065406 0.0002547519 0.0003426084 0.0000513241 0.0000700120 0.0000332082 0.0001019625 0.0001176405 0.0003065015 0.0001090268 0.0002158692 0.0002128510 0.0001511486 0.0001286245 0.0003025698 0.0001802900 0.0002123317 0.0005900021 0.0000310546 0.0000171222 0.0000470449 0.0003263727 0.0002987008 0.0001838329 0.0000882496 0.0000625284 0.0002247591 0.0001548860 0.0002732200 0.0000131074 0.0002138348 0.0000801716 0.0000599188 0.0003264122 0.0000929567 0.0003800949 0.0000910875 0.0002013751 0.0000745410 0.0001493555 0.0000018434 0.0002242970 0.0000761941 0.0001232351 0.0000166429 0.0001239310 0.0001071058 0.0000739976 0.0000911471 0.0000350161 0.0000238423 0.0000143562 0.0001220866 0.0000855821 0.0001111414 0.0001568477 0.0000609652 0.0000498363 0.0000870688 0.0000253096 0.0000509452 0.0001030472 0.0000105784 0.0001190416 0.0001315886 0.0001135862 0.0001368396 0.0000166383 0.0000511358 0.0000291205 0.0000746221 0.0000469289 0.0000215157 0.0003060093 0.0000018032 0.0000798093 0.0000851485 0.0000074173 0.0000659329 0.0000652301 0.0005475575 0.0001235979 0.0000742046 0.0002437970 0.0000565874 0.0000493824 0.0003275347 0.0002120702 0.0000448670 0.0002780633 0.0002099564 0.0000938476 0.0000537943 0.0001302663 0.0000663713 0.0000403949 0.0000206514 0.0000578851 0.0001106506 0.0002473060 0.0000925243 0.0001924344 0.0001286759 0.0007829458 0.0006609045 0.0001600589 0.0000243377 0.0001459470 0.0003536844 0.0002832571 0.0001087041 0.0000998131 0.0001236874 0.0000851475 0.0000233443 0.0000180870 0.0000538896 0.0001183583 0.0000471154 0.0001412841 0.0000287422 0.0000465741 0.0000400450 0.0000327472 0.0000612924 0.0000770196 0.0001304645 0.0000853676 0.0001734545 0.0000911405 0.0001010205 0.0000139245 0.0001087055 0.0000768029 0.0000638949 0.0001259391 0.0000265541 0.0002725483 0.0001051638 0.0000765271 0.0001299800 0.0001388944 0.0000578086 0.0000339941 0.0000122942 0.0000947641 0.0001501844 0.0000840291 0.0001218599 0.0000846956 0.0007538204 0.0000579093 0.0007440205 0.0003208770 0.0001234930 0.0000496507 0.0000407356 0.0000601606 0.0000537291 0.0000042457 0.0000517202 0.0000576939 0.0000497328 0.0000272819 0.0000310975 0.0000594858 0.0000493797 0.0001195742 0.0000146476 0.0000248343 0.0001182920 0.0000455261 0.0000770609 0.0000634624 0.0000440019 0.0000755736 0.0002127975 0.0000724458 0.0002697795 0.0007412653 0.0000092693 0.0004750624 0.0001224744 0.0002614146 0.0001683411 0.0006517919 0.0000485182 0.0003435353 0.0000787582 0.0000520889 0.0000524174 0.0000688105 0.0000937440 0.0001664718 0.0000525646 0.0001949706 0.0000527998 0.0000134625 0.0000779431 0.0000324673 0.0000572334 0.0000579783 0.0000620242 0.0000485219 0.0001671667 0.0001024758 0.0000171765 0.0000524018 0.0000054595 0.0001183195 0.0000611028 0.0000465111 0.0000841968 0.0001006740 0.0000122070 0.0000420700 0.0000262021 0.0000383940 0.0000747593 0.0000045271 0.0000900632 0.0000539988 0.0000729182 0.0000843004 0.0000256869 0.0000814020 0.0000227112 0.0000935462 0.0001104527 0.0000117207 0.0001381627 0.0003076568 0.0002452467 0.0000806174 0.0001251697 0.0000309276 0.0000005382 0.0000261864 0.0000066161 0.0000634886 0.0000055559 0.0000370400 0.0000900450 0.0000453483 0.0000486800 0.0000840155 0.0000398451 0.0000650763 0.0000247821 0.0002710457 0.0001697961 0.0000410672 0.0000557098 0.0000339320 0.0000102931 0.0000361190 0.0000371515 0.0002543153 0.0000675368 0.0001610718
        </DataArray>
        <DataArray type="Float32" Name="contact normal" NumberOfComponents="3" format="ascii">