<?xml version="1.0"?>
<VTKFile type="UnstructuredGrid" version="0.1" byte_order="LittleEndian">
  <UnstructuredGrid>
    <FieldData>
      <DataArray type="Float32" Name="TIME"  NumberOfTuples="1" format="ascii"> 2.0500000000 </DataArray>
      <DataArray type="Int32"   Name="STEP"  NumberOfTuples="1" format="ascii"> 205000 </DataArray>
    </FieldData>
    <Piece NumberOfPoints="257" NumberOfCells="257">
      <Points>
        <DataArray type="Float32" NumberOfComponents="3" format="ascii">
 6.5026244481 0.1590054326 -6.6805343155 6.6260329479 0.1008480987 -6.6606678123 6.5464361530 0.0973215182 -6.7933598078 6.6362980591 0.0998853420 -6.6784941548 6.6739833373 0.0835737134 -6.8303247143 6.6729377513 0.3170234590 -6.6577587958 6.6841974441 0.3127574930 -6.6662615916 6.6833236585 0.4028926814 -6.6730877636 6.7723848153 0.1634062098 -6.8806493148 6.7798069100 0.1705244956 -6.8813930855 6.7380868566 0.4258615711 -6.7694129108 6.7439096137 0.4277644947 -6.7836450345 6.8135569357 0.2304477309 -6.9649099808 6.7085337117 0.3692177013 -6.9450833371 6.7179281248 0.3677605138 -6.9554294788 6.7363538556 0.3850426396 -6.9652292601 6.8632538590 0.3776392921 -6.8354163034 6.8738523163 0.3708083984 -6.8451400350 6.8863855086 0.3658468401 -6.9420186520 7.1620616506 0.2530433415 -6.5147481504 7.1039121844 0.3122976106 -6.5990910635 7.1037890737 0.3083089149 -6.6078863233 7.1835736062 0.5137423355 -6.6711494618 7.1835551372 0.5061017345 -6.6920380566 7.1816335620 0.2871522290 -6.7334007250 7.1817313533 0.3010729588 -6.7408023198 7.1323163844 0.4685480024 -6.7951391271 7.1265368273 0.4492205327 -6.7809197830 6.3365526439 0.7234957697 -6.4828082798 6.3466905439 0.7253510795 -6.4814888981 6.3501604386 0.7165518223 -6.4879013629 6.2836791202 0.8061193218 -6.3219473691 6.2945542286 0.8076651455 -6.3248913937 6.2820133688 0.8069123685 -6.3102303572 6.2935806176 0.8086485863 -6.3138270422 6.3179267770 0.6386194096 -6.3986372860 6.3092550816 0.6995832595 -6.2670778909 6.3167785326 0.6941989542 -6.2705509834 6.7195018616 0.7087732220 -6.5940636935 6.8069083609 0.7175405931 -6.6685453348 6.7111059900 0.7040823432 -6.7129141263 6.7147360425 0.7082917202 -6.7163910174 6.7093431047 0.7100557741 -6.7192207658 6.5767688233 0.7180784776 -6.6538082374 6.8070072125 0.8257284312 -6.7176193257 6.6500035270 0.8030991094 -6.6261975033 6.6444866526 0.8042014022 -6.6311649295 6.6526128203 0.8086599900 -6.6315109053 6.6475851751 0.8100358571 -6.6368270303 6.6430308319 0.8120076041 -6.6428431375 6.6026159523 0.3705716507 -6.2089790578 6.4324266758 0.5587780943 -6.2907703532 6.6743615118 0.4481732223 -6.2633511522 6.6814699366 0.4485746328 -6.2735064417 6.6673904124 0.3642482949 -6.3184161536 6.6856714820 0.4645945596 -6.2722288927 6.6916411336 0.4639160416 -6.2811644968 6.5764244933 0.3761324461 -6.4222605326 6.5419602635 0.6532950504 -6.1518882396 6.5292567868 0.6969772821 -6.3635152311 6.7534060283 0.4518519079 -6.4076846764 6.7608542556 0.4633642848 -6.4083596526 6.5982862843 0.7845831149 -6.2534694603 6.7394716350 0.7453327116 -6.3022764309 6.7498061852 0.7641811477 -6.3134848019 6.6571025371 0.8399928535 -6.4599207351 6.8761538326 0.7060035303 -6.4436341034 7.0564355488 0.2882507900 -6.6082289885 7.0381467427 0.1402669175 -6.6085892165 6.7525365477 0.0355047532 -6.7898371239 6.8473837935 0.2083247112 -6.7519854601 6.9267780218 0.3452911857 -6.7291788734 6.9373448112 0.3532041422 -6.7275718838 6.7734172187 0.2657156678 -6.6159074388 6.8525025382 0.1667536153 -6.5122295773 6.7426210800 0.2010655806 -6.5357809166 6.3386428176 0.3647057805 -6.5010314853 6.3341205546 0.3588630128 -6.4907006994 6.3358776235 0.3800744963 -6.3709972337 6.3416591820 0.3891698451 -6.3653276550 6.3387684483 0.3971217698 -6.3563660025 6.3443383130 0.4042007684 -6.3525660299 6.3414604494 0.4109001369 -6.3447403892 6.3384712217 0.4175543330 -6.3369577138 6.3440460739 0.4233316624 -6.3343529218 6.3411320319 0.4301391474 -6.3264272681 6.2965227537 0.5208971547 -6.3949186604 6.3008161954 0.5261878829 -6.3965113650 6.3601222844 0.5602500934 -6.2685667407 6.3550109123 0.5692253980 -6.2763087690 6.4331735774 0.2964625515 -6.3313809113 6.4904692142 0.2203561795 -6.4346114744 6.4867237158 0.2114862614 -6.4317861130 6.4958437451 0.2213471044 -6.4384151039 6.4813022622 0.2051686203 -6.4278340700 6.4925018159 0.2111562808 -6.4358340862 6.5007330597 0.2241224980 -6.4419139773 6.5053525068 0.2288432640 -6.4452647836 6.5099174765 0.2359445571 -6.4486237765 6.5146877371 0.2462745993 -6.4521765589 6.3827188354 0.2168638580 -6.2857431258 6.5211975464 0.2449911144 -6.4567396653 6.5790199220 0.2383995378 -6.3944173156 6.5850148791 0.2466468158 -6.3992620610 6.5928146517 0.2439837070 -6.4036684073 6.4151730375 0.1436032482 -6.2873228348 6.3714723271 0.0685376553 -6.3161121194 6.3846764886 0.0461805226 -6.3275823176 6.4642695344 -0.0347300186 -6.3238741940 6.5869182809 0.0453151628 -6.3875367026 6.5982899917 0.0654122786 -6.3956257137 6.6035169962 0.0757601690 -6.3993405438 6.6099104664 0.0810129358 -6.4039562145 7.0714241486 0.1612700227 -6.7714454413 7.1131668633 0.0953479889 -6.5920816620 6.6533590586 0.1641909304 -6.3405456623 6.7329349526 0.1707253318 -6.2914480522 6.9610805748 0.6692306186 -6.4660661307 6.9607445752 0.6799909857 -6.4632331346 6.9022511471 0.6020172161 -6.6193486338 6.9979731228 0.6612633955 -6.6061582691 6.9948434949 0.6642463017 -6.6116725547 6.9980498077 0.6705380254 -6.6096088589 6.9198399920 0.7339481230 -6.6154284348 6.6768924277 0.4694540404 -6.6417772372 6.7504320967 0.4762663907 -6.6470420881 6.7547098938 0.4953113074 -6.6412862618 6.7631207823 0.4887793035 -6.6520406745 6.6344775771 0.5179257870 -6.7692030940 6.6385662256 0.5335135810 -6.7714663871 6.8310485450 0.6290829298 -6.7249516101 6.8390979168 0.6323568072 -6.7315877057 6.8860555922 0.4551575797 -6.8223926986 6.8931286418 0.4659433756 -6.8249397622 6.8474329727 0.6358309020 -6.7385093175 6.8999654737 0.4764458509 -6.8275589652 6.7402917375 0.7220556705 -6.8214746192 6.7469401323 0.7345538614 -6.8215264310 6.8564268887 0.6397563103 -6.7460782311 6.7473522234 0.7212421113 -6.8314245983 6.8666330817 0.6445070111 -6.7548279815 6.8116405555 0.7491694331 -6.8204303358 6.8136498670 0.6231966941 -6.9425845344 6.9149617275 0.5554962783 -6.9197626237 6.8258863743 0.6368923639 -6.9546991798 6.9747394597 0.6665870977 -6.8549964971 6.9387457220 0.7156868663 -6.8604407733 6.7379147454 0.0883307542 -6.4324598984 6.7398156007 -0.0093222824 -6.3718700531 6.5683016446 0.0783016153 -6.2909329222 6.6514132033 0.0244935042 -6.2861915947 6.6442369481 0.0272396394 -6.2812451869 6.5757175674 -0.0243458684 -6.2589826582 6.5661765677 -0.0164033928 -6.2675166671 7.2122886358 0.4129802527 -6.6833267839 6.4560822551 0.0527878668 -6.5611546764 6.4575522445 0.0198028164 -6.6026737223 6.4730183142 0.1133724434 -6.6234576864 6.4765372272 0.1112356341 -6.6245514674 6.5000001010 0.1375091231 -6.5569969521 6.3054153671 0.8292075901 -6.2313809138 6.7101523729 0.3361649606 -6.5975613852 6.7804210993 0.5656955250 -6.9830426196 6.7727913851 0.5696246882 -6.9780410160 6.8902873116 0.0528873218 -6.8181363208 6.8690735104 0.0613600242 -6.7731334224 6.8790044628 0.0663116427 -6.7731090934 6.8726315211 0.0675771142 -6.7684917352 6.9601433696 0.1044036643 -6.8336958585 6.9684444646 0.1179726352 -6.8328812018 6.8279316404 0.1723288516 -6.8542803299 6.8326701305 0.1763411287 -6.8548171597 6.7927672747 0.0925779010 -6.3266696834 6.8488941964 0.1950831901 -6.3355206569 7.0634442276 0.5904412524 -6.8257025390 7.0339096624 0.5821212376 -6.7337762101 7.0319428192 0.4578905319 -6.8005862579 7.0312631483 0.4532212319 -6.8051457179 7.0276687512 0.4505215976 -6.8003391579 6.9917175989 0.3816402637 -6.8664995507 6.9800443932 0.3675414950 -6.8653353659 6.6981960085 0.0725003782 -6.2184598057 6.3958298578 0.7607490900 -6.6076689394 6.9595195879 0.6264060534 -6.7046621034 6.8683017557 0.5698365437 -6.6382585893 6.8609740256 0.5734525559 -6.6317601998 6.4071107944 0.8077635635 -6.2481388849 6.4143304332 0.8070101435 -6.2448375455 6.3582241990 0.2050075220 -6.5258167317 6.4348992410 0.2107456208 -6.6269868808 6.5099079352 0.0694967204 -6.2432198943 6.5430795888 0.1105441222 -6.2648065712 6.8532346471 -0.0152871582 -6.5747874579 6.6221376114 0.8109388223 -6.1794075452 6.4777823757 0.8466167813 -6.2938498187 6.8960079634 0.1129625369 -6.4582521338 6.7846405429 0.1128946774 -6.4659622133 6.5461376495 0.7718814819 -6.7026859757 6.5050993319 0.8807703296 -6.6964154374 6.8421374374 0.7290904350 -6.3374622466 6.8392128028 0.7282537887 -6.2602978002 6.6644080279 0.7645927734 -6.1780909841 6.4983857625 0.7377708664 -6.5135139065 6.5567818767 0.8627217443 -6.4815670724 6.5650073091 0.8644477626 -6.4939439334 6.5369160698 0.8402823825 -6.5094950420 6.2913144275 0.1302805839 -6.4436850377 6.3572843718 0.0609821577 -6.5232255402 6.8894843249 0.8772289099 -6.7282069867 6.9830958369 0.8676561821 -6.6814320413 6.8820487325 0.8796621498 -6.7189764993 6.9804579308 0.8461365977 -6.6802921070 6.6346916667 0.1471847598 -6.1882887704 7.0298376369 0.6341552449 -6.6538936077 7.0286259426 0.6404756437 -6.6588045137 7.0312101825 0.6452913894 -6.6617384142 7.0523850342 0.3560425301 -6.7907779133 6.8977811689 0.0286195202 -6.7046899710 6.8992186866 0.0234326651 -6.7115792410 6.9862408504 0.0198780287 -6.8723850664 7.0005465458 0.0056000793 -6.8259080276 6.9991667417 0.0082775655 -6.8161981732 6.5251280997 0.2637867820 -6.6423991900 6.8990112023 0.8382805402 -6.8421309844 6.8988913266 0.8468601657 -6.8413636615 6.8213365098 0.8706343421 -6.8127472668 6.3182453539 0.1157747526 -6.4259631669 6.7371339595 0.4197413268 -6.1940946226 6.5786394210 0.5290725332 -6.0701008229 6.8249123888 0.1028834636 -7.0549644512 6.8327258452 0.1135269705 -7.0471440861 6.8345835301 0.1184936319 -7.0418152136 6.8369579225 0.1224771465 -7.0383545588 6.8399636155 0.1258507280 -7.0363462922 6.8438159064 0.1288403134 -7.0356628766 6.8864345475 0.0114065934 -6.6367839296 6.8760849589 0.0091617192 -6.6296795850 6.9065173091 0.0180627452 -6.6477383736 6.7981171113 0.0218410070 -6.6005785189 6.8850875297 0.2815915877 -7.0166865902 6.4135131814 0.4277528124 -6.6029672987 6.3385399676 0.5552385101 -6.4646659553 6.3301271874 0.5425760424 -6.4666590147 6.4789264997 0.5904488993 -6.5017342205 6.4640842946 0.4636769816 -6.5939119915 6.5083660282 0.6683374210 -6.5527543834 6.5110145090 0.6649791241 -6.5541898122 6.5536107981 0.4402813320 -6.7157959613 6.4981740474 0.2447077459 -6.2179561249 6.5440687431 0.2234268499 -6.1657750693 6.6971956953 0.7324682935 -6.2207793843 6.7830674217 -0.0049389033 -6.3865150771 6.3946021259 0.3539510814 -6.3103573389 6.3884312394 0.3509910064 -6.3076778282 6.8975907663 -0.0564966531 -6.4963720321 6.6159883909 0.8588404760 -6.5437146350 6.6094035694 0.8525926548 -6.5428125491
        </DataArray>
      </Points>
      <Cells>
        <DataArray type="Int32" Name="connectivity" format="ascii">
 0 1 2 3 4 5 6 7 8 9 10 11 12 13 14 15 16 17 18 19 20 21 22 23 24 25 26 27 28 29 30 31 32 33 34 35 36 37 38 39 40 41 42 43 44 45 46 47 48 49 50 51 52 53 54 55 56 57 58 59 60 61 62 63 64 65 66 67 68 69 70 71 72 73 74 75 76 77 78 79 80 81 82 83 84 85 86 87 88 89 90 91 92 93 94 95 96 97 98 99 100 101 102 103 104 105 106 107 108 109 110 111 112 113 114 115 116 117 118 119 120 121 122 123 124 125 126 127 128 129 130 131 132 133 134 135 136 137 138 139 140 141 142 143 144 145 146 147 148 149 150 151 152 153 154 155 156 157 158 159 160 161 162 163 164 165 166 167 168 169 170 171 172 173 174 175 176 177 178 179 180 181 182 183 184 185 186 187 188 189 190 191 192 193 194 195 196 197 198 199 200 201 202 203 204 205 206 207 208 209 210 211 212 213 214 215 216 217 218 219 220 221 222 223 224 225 226 227 228 229 230 231 232 233 234 235 236 237 238 239 240 241 242 243 244 245 246 247 248 249 250 251 252 253 254 255 256
        </DataArray>
        <DataArray type="Int32" Name="offsets" format="ascii">
 1 2 3 4 5 6 7 8 9 10 11 12 13 14 15 16 17 18 19 20 21 22 23 24 25 26 27 28 29 30 31 32 33 34 35 36 37 38 39 40 41 42 43 44 45 46 47 48 49 50 51 52 53 54 55 56 57 58 59 60 61 62 63 64 65 66 67 68 69 70 71 72 73 74 75 76 77 78 79 80 81 82 83 84 85 86 87 88 89 90 91 92 93 94 95 96 97 98 99 100 101 102 103 104 105 106 107 108 109 110 111 112 113 114 115 116 117 118 119 120 121 122 123 124 125 126 127 128 129 130 131 132 133 134 135 136 137 138 139 140 141 142 143 144 145 146 147 148 149 150 151 152 153 154 155 156 157 158 159 160 161 162 163 164 165 166 167 168 169 170 171 172 173 174 175 176 177 178 179 180 181 182 183 184 185 186 187 188 189 190 191 192 193 194 195 196 197 198 199 200 201 202 203 204 205 206 207 208 209 210 211 212 213 214 215 216 217 218 219 220 221 222 223 224 225 226 227 228 229 230 231 232 233 234 235 236 237 238 239 240 241 242 243 244 245 246 247 248 249 250 251 252 253 254 255 256 257
        </DataArray>
        <DataArray type="UInt8" Name="types" format="ascii">
 1 1 1 1 1 1 1 1 1 1 1 1 1 1 1 1 1 1 1 1 1 1 1 1 1 1 1 1 1 1 1 1 1 1 1 1 1 1 1 1 1 1 1 1 1 1 1 1 1 1 1 1 1 1 1 1 1 1 1 1 1 1 1 1 1 1 1 1 1 1 1 1 1 1 1 1 1 1 1 1 1 1 1 1 1 1 1 1 1 1 1 1 1 1 1 1 1 1 1 1 1 1 1 1 1 1 1 1 1 1 1 1 1 1 1 1 1 1 1 1 1 1 1 1 1 1 1 1 1 1 1 1 1 1 1 1 1 1 1 1 1 1 1 1 1 1 1 1 1 1 1 1 1 1 1 1 1 1 1 1 1 1 1 1 1 1 1 1 1 1 1 1 1 1 1 1 1 1 1 1 1 1 1 1 1 1 1 1 1 1 1 1 1 1 1 1 1 1 1 1 1 1 1 1 1 1 1 1 1 1 1 1 1 1 1 1 1 1 1 1 1 1 1 1 1 1 1 1 1 1 1 1 1 1 1 1 1 1 1 1 1 1 1 1 1 1 1 1 1 1 1 1 1 1 1 1 1
        </DataArray>
      </Cells>
      <PointData Scalars="overlap">
        <DataArray type="Float32" Name="overlap" format="ascii">
 0.0001371191 0.0000501327 0.0001095623 0.0001355774 0.0000396840 0.0000854624 0.0000502040 0.0001305907 0.0000572607 0.0002512585 0.0003179488 0.0000117043 0.0000005586 0.0000470135 0.0000225391 0.0003297198 0.0000103370 0.0002273287 0.0001008195 0.0001417302 0.0003386050 0.0001880899 0.0002849384 0.0002116793 0.0002830187 0.0002173829 0.0001273914 0.0004586274 0.0002207800 0.0000380864 0.0000691079 0.0000718187 0.0000209896 0.0000547679 0.0000550407 0.0001767496 0.0001244809 0.0001276250 0.0000717265 0.0002473784 0.0002522849 0.0005627658 0.0000682563 0.0002146836 0.0000715122 0.0001251763 0.0001747302 0.0002091473 0.0003785659 0.0001599136 0.0000686964 0.0001775059 0.0000545942 0.0000289955 0.0000058629 0.0000143604 0.0000933236 0.0002982013 0.0001729010 0.0000326504 0.0001195066 0.0000162074 0.0000032372 0.0000682955 0.0000623097 0.0002058118 0.0000146871 0.0000972842 0.0000261909 0.0000191076 0.0001579428 0.0000554243 0.0000070274 0.0001385858 0.0000749691 0.0000866631 0.0000655461 0.0000482728 0.0000334452 0.0000423902 0.0000504029 0.0000137707 0.0000427678 0.0000003970 0.0000101876 0.0000121226 0.0000951087 0.0000674023 0.0000362450 0.0000503421 0.0000259956 0.0000382946 0.0000252042 0.0000621398 0.0000006559 0.0000232665 0.0000768513 0.0000925616 0.0001059244 0.0000900163 0.0000477238 0.0001091557 0.0000056467 0.0000501384 0.0000053300 0.0000525665 0.0000199432 0.0000550361 0.0000216048 0.0000114202 0.0000952140 0.0000494600 0.0000199251 0.0000075229 0.0000838930 0.0000015464 0.0000062501 0.0001172877 0.0000235285 0.0000346925 0.0000396775 0.0001758486 0.0000144534 0.0002409098 0.0001407917 0.0001628243 0.0001343949 0.0000629611 0.0000585831 0.0000570387 0.0000024752 0.0000175839 0.0000475153 0.0001754941 0.0000291091 0.0001120540 0.0000089429 0.0000676105 0.0000399298 0.0001357694 0.0000417499 0.0000722712 0.0000410460 0.0001060893 0.0002696686 0.0001260044 0.0000125615 0.0000146931 0.0000221578 0.0000892210 0.0000031182 0.0000385669 0.0000761453 0.0000044527 0.0000146351 0.0000203574 0.0000121266 0.0000105397 0.0000306564 0.0000186209 0.0000643826 0.0000085099 0.0001101871 0.0000760312 0.0000665158 0.0000221046 0.0000328931 0.0000879343 0.0000395188 0.0000088174 0.0002039438 0.0000273372 0.0001867594 0.0000001050 0.0000506263 0.0000293491 0.0001373496 0.0001006358 0.0001336486 0.0000876873 0.0000592819 0.0000069069 0.0001867456 0.0000356302 0.0000147893 0.0000276887 0.0000450300 0.0000523021 0.0001815889 0.0001112991 0.0000142152 0.0000331863 0.0000049947 0.0000204320 0.0000142285 0.0000781763 0.0000224555 0.0001248374 0.0000232918 0.0000332595 0.0000418952 0.0000035454 0.0000832022 0.0000511054 0.0000408445 0.0001378939 0.0000420587 0.0001023142 0.0001330526 0.0000081318 0.0000158814 0.0000501787 0.0000027695 0.0000025559 0.0000121843 0.0000104782 0.0000460493 0.0000785204 0.0000261493 0.0000181526 0.0000227848 0.0000489129 0.0000299212 0.0000396341 0.0000365969 0.0000049747 0.0000032543 0.0000644255 0.0000335727 0.0000439936 0.0000743755 0.0000381512 0.0000166587 0.0000139898 0.0000244165 0.0000275895 0.0000138731 0.0000236706 0.0000053870 0.0000363317 0.0000192292 0.0000629248 0.0000186538 0.0000575322 0.0000034090 0.0000070687 0.0000023426 0.0000288133 0.0000254370 0.0000269414 0.0000141361 0.0000407027 0.0000143057 0.0000232717 0.0000839776 0.0000098839 0.0000581434
        </DataArray>
        <DataArray type="Float32" Name="contact normal" NumberOfComponents="3" format="ascii">
 0.5588781759 -0.0605391034 -0.8270370013 -0.5230010889 0.7856617537 -0.3304625090 0.4945192354 0.8007861490 0.3379234666 -0.4969619367 0.7792090922 -0.3819188711 -0.6327477869 0.7495670105 -0.1943695834 -0.6701740038 0.0546578130 -0.7401887111 -0.5678195701 0.0046299948 -0.8231400239 0.2471942924 -0.6739891706 -0.6961562898 -0.7612596103 0.6446027208 -0.0705062980 -0.7166901163 0.6915451164 -0.0901145335 -0.2975512374 -0.9346100355 -0.1948521045 -0.3060217184 -0.8322894096 -0.4622175317 -0.4027953515 0.3407176818 0.8495100742 0.5736904392 -0.5413716942 0.6146510951 0.5785617329 -0.5339645794 0.6165615534 0.6137454055 -0.4763488138 0.6296097083 -0.7529301987 0.1512433520 -0.6404854131 -0.7260243021 0.0000592618 -0.6876690405 -0.1349777812 -0.2087751272 0.9686041218 -0.9350590326 0.3071673806 -0.1769542476 0.9456583730 -0.1889359587 0.2646383288 0.9683084358 -0.1723840529 0.1807277276 -0.9792248573 -0.2021707199 -0.0156741481 -0.9743014420 -0.2205107413 -0.0459533791 -0.9555277045 0.1276079772 0.2658627657 -0.9287529090 0.3658442980 0.0597995287 0.9413426089 0.0403133022 0.3350357150 0.9193699755 -0.0819358697 0.3847666325 -0.0760306754 -0.6178954788 0.7825755642 0.0002354386 -0.5886731755 0.8083711010 -0.0362701635 -0.6752186683 0.7367253390 0.1682632925 -0.9814981669 0.0913718383 0.1685100403 -0.9814500211 0.0914342523 0.1682974431 -0.9814915074 0.0913804768 0.2333280368 -0.9664137610 0.1077147613 0.3522490643 0.9359053234 -0.0013499159 0.1253009743 0.6438218930 -0.7548463657 0.1579855753 0.6107016928 -0.7759407197 -0.5741533337 -0.0699214908 -0.8157566638 -0.7727801171 0.5947151985 0.2216409784 -0.4613442664 0.5587513400 0.6891722629 -0.3986693849 0.5794748771 0.7108245834 -0.4366162955 0.5870572339 0.6817110933 0.8232592087 0.1845827220 0.5368179338 0.1844139118 -0.7592387422 0.6241378385 0.3251743283 -0.7778429213 -0.5377936835 0.3313593526 -0.7714617812 -0.5431829337 0.4238007037 -0.7088921268 -0.5637951012 0.4071980450 -0.7210938101 -0.5605474727 0.3956524044 -0.7293205679 -0.5581672546 0.0365982234 0.8640519714 -0.5020704739 0.7422427257 -0.4344714334 0.5102061444 -0.7990034965 0.2656213904 -0.5394800177 -0.7941191725 0.2457658726 -0.5558541857 -0.6314677203 0.7084446448 -0.3152058113 -0.7940196231 0.3100488301 -0.5228791076 -0.7932234351 0.2769902301 -0.5422849753 0.3988335072 0.4884132139 0.7761342448 -0.2088777162 -0.3636271433 -0.9078245427 0.4838184747 -0.8733036429 -0.0571001831 -0.9183951461 0.3243493345 -0.2266006728 -0.7910391875 0.5951760009 0.1415009953 0.1823719885 -0.5171631673 -0.8362312576 -0.6373827142 -0.1589336026 -0.7539783721 -0.5041069765 -0.1383977385 -0.8524800421 0.4626665841 -0.7619599863 0.4531628970 -0.8191314078 -0.0626810598 -0.5701708704 0.8201368922 -0.3860098339 0.4223409596 -0.6882372757 0.7241835141 -0.0434475583 0.1082720993 -0.5195566324 0.8475482631 0.1465062066 0.5720564758 0.8070237419 -0.2831414279 -0.8357250173 0.4705259050 0.7668970921 -0.4034923491 0.4990618942 0.7645299945 -0.2984060298 0.5713560439 -0.3821085682 0.6404024102 -0.6662415441 0.8378041974 0.5007091022 -0.2176568901 0.0150379450 0.9052069754 0.4247048291 -0.1389734032 0.6233348733 0.7695063541 -0.3553739257 0.6425958126 -0.6788077744 -0.3066939317 0.6478797408 -0.6972737437 -0.3553891858 0.6425938610 -0.6788016326 -0.3552965696 0.6426057041 -0.6788389033 -0.3553933678 0.6425933261 -0.6787999495 -0.3554912008 0.6425808080 -0.6787605700 -0.3553934398 0.6425933168 -0.6787999205 -0.3554906082 0.6425808840 -0.6787608083 0.7373095610 -0.5223780638 0.4283640621 0.7390217956 -0.5157703801 0.4333909327 -0.2900837270 -0.9115345674 -0.2914724066 0.2124232761 -0.4936975059 -0.8432906524 -0.2995985903 -0.2245248244 -0.9272698032 0.5718238105 0.0198502339 0.8201362679 0.5721442822 0.0194751579 0.8199217271 0.5722801133 0.0193164533 0.8198306816 0.5720986820 0.0195285356 0.8199522756 0.5727349653 0.0187833067 0.8195253791 0.5725455987 0.0190054541 0.8196525667 0.5726363106 0.0189086225 0.8195914347 0.5726210738 0.0191427891 0.8195966443 0.5722088111 0.0196836155 0.8198717167 -0.5840024566 -0.2062371429 -0.7851161516 0.5734393757 0.0202986610 0.8189964876 -0.5358993143 -0.1007657591 -0.8382470917 -0.5396889610 -0.0941102214 -0.8365877668 -0.5231677486 -0.1203997707 -0.8436820503 -0.2634992657 -0.2526871215 -0.9309765602 0.8565858508 0.5160028460 0.0013202554 0.8711654465 0.4702465199 -0.1412054366 -0.3099501885 0.4618200935 -0.8310554024 -0.5720414367 -0.0141959042 -0.8201018662 -0.5728174226 -0.0106155050 -0.8196142455 -0.5930763538 0.0157872021 -0.8049914303 -0.5731624225 -0.0096816441 -0.8193845881 0.6435411344 -0.7391716988 0.1986957675 -0.6931621929 0.4967769519 -0.5222440372 -0.0281578141 0.5648943569 0.8246826681 -0.8314671986 0.1703381959 -0.5288167894 0.2018164241 0.2277489063 -0.9525757537 0.2196918854 0.2894701341 -0.9316343258 0.6730285352 0.7344874435 -0.0869527809 -0.7704673148 0.2356751217 0.5923152487 -0.7725751468 0.2338792012 0.5902780377 -0.7679494113 0.2385960519 0.5944119999 0.6239382058 -0.6839005555 0.3781284776 0.1309419659 0.9411317066 -0.3116493420 -0.8021774368 -0.4694319251 -0.3689783566 -0.4289444732 0.6226157882 -0.6544892812 -0.3927024940 0.5865094931 -0.7083723355 0.7448690925 -0.0999935282 0.6596751696 0.7448623850 -0.0999647933 0.6596870982 -0.4277542317 -0.4905185703 -0.7592218710 -0.4279622302 -0.4904376828 -0.7591569066 -0.7841432923 0.3952761240 -0.4784099528 -0.7841480611 0.3952848808 -0.4783949010 -0.4280926782 -0.4902478238 -0.7592059866 -0.7841522852 0.3952926372 -0.4783815679 0.2277973196 -0.9411242613 0.2497869213 0.8301641032 -0.0489886755 0.5553626485 -0.4284236171 -0.4899923257 -0.7591842497 0.2927917811 -0.9481047205 0.1239774653 -0.4293629696 -0.4901706791 -0.7585381637 0.1551992673 -0.8880699769 0.4327180416 0.5889820381 0.0554721956 0.8062400352 -0.6906754420 0.3859967441 0.6115340934 0.6714472248 0.2306623272 0.7042396717 -0.8994109672 0.3945220258 0.1881815169 -0.4748623735 -0.7084429763 -0.5221247701 -0.4298734829 0.3047205613 0.8499142123 -0.9020789142 0.4256210485 -0.0714167741 -0.0490943792 -0.4146118025 -0.9086730959 -0.4928279655 0.0006939207 -0.8701264936 -0.5471856570 0.0455989087 -0.8357682671 0.6450499575 0.3393396132 -0.6846599004 0.6600171335 0.1176591446 -0.7419795882 -0.8613234583 0.4845425243 0.1527757912 -0.1315393408 0.1151311373 -0.9846025711 0.2062139936 0.9693458311 0.1335831150 0.0489308738 -0.3644689454 0.9299291142 0.0581268696 -0.3725698869 0.9261819187 -0.2165744205 -0.3513499951 -0.9108505373 -0.4460789149 0.4023827872 -0.7994383618 -0.1307330939 0.6843209121 0.7173658393 0.5722902301 0.7747280608 0.2688500035 0.5223000292 0.8213929750 0.2291642643 0.0427600834 0.9047243849 0.4238459186 -0.4266337208 0.6599705044 -0.6184032678 -0.3636023101 0.6911490529 -0.6245849396 -0.3876869798 0.6808410207 -0.6214131558 -0.8341163156 0.4815608602 -0.2689778987 -0.8180660318 0.5197163394 -0.2462983845 0.4899102772 -0.6310048375 0.6015154323 0.4918995328 -0.6218088803 0.6094165783 -0.7691596675 0.6386180160 -0.0236735182 -0.3188252641 -0.7563491931 0.5712148012 -0.5607802656 -0.7899181076 0.2481025535 0.1465849013 -0.5829872911 -0.7991487253 -0.7590655976 0.6507880022 0.0171579362 -0.7799182140 0.4170435396 -0.4666929028 -0.8599669213 0.3101338152 -0.4053071811 -0.6826484769 0.6822058837 0.2618896507 -0.7189504894 0.6190822726 0.3159862869 0.1573563185 -0.7243512870 -0.6712333439 -0.3005797355 -0.3280697877 0.8955568307 -0.8401082504 0.4091852024 -0.3560696529 -0.3378123134 0.5680110377 -0.7504973697 -0.3755587712 0.6031891595 -0.7036465357 -0.3843754080 0.2392461804 0.8916371520 -0.3835406641 0.2336240495 0.8934855133 0.6384532604 0.7682739303 -0.0461801079 -0.5955275051 0.0942617953 0.7977855004 -0.5312843803 -0.2339602264 -0.8142478245 -0.2467427052 -0.2178389141 -0.9442797493 -0.9672465658 -0.0163124700 0.2533140033 -0.1925168690 0.0159147627 -0.9811646016 0.8913067362 0.4044611159 0.2048987744 -0.7769220703 0.4857785272 -0.4005138190 0.9051938865 -0.2537407179 0.3409394021 -0.7893473523 -0.1386601869 -0.5980836982 -0.5290235403 -0.8468931733 0.0539077615 0.7921691298 0.0862380342 0.6041780129 -0.0043716662 -0.1541260488 -0.9880415222 -0.0256124278 0.1564830724 0.9873484955 -0.3246278510 0.8976726622 -0.2979942111 -0.9302293850 -0.1030605720 -0.3522098946 -0.8974431345 0.1317988798 -0.4209808495 0.4340138205 -0.4074743935 0.8034902752 -0.4921714820 0.4805710700 -0.7258227601 -0.4852418241 0.3000957392 -0.8212690908 0.8004623093 -0.4459114807 0.4005284544 -0.8994821832 0.0920112910 -0.4271600688 0.7299111338 0.1359111794 0.6698939379 -0.8723587914 0.0837679682 -0.4816358236 0.0424078887 -0.7877162678 0.6145768076 0.1684471261 -0.5859097723 -0.7926760400 0.1689710571 -0.5853371691 -0.7929875032 0.1725575231 -0.5824152089 -0.7943654233 -0.4515241283 0.8896679645 0.0679475862 -0.5743764667 0.4595718692 -0.6774107849 -0.5778568057 0.4450577803 -0.6841089710 0.7056136599 0.4065663136 0.5803560938 -0.2766178469 0.8463831837 -0.4551022666 -0.2818418930 0.8690964131 -0.4064930160 -0.3955958383 -0.9040283016 0.1619776606 0.9934428220 -0.0541356909 -0.1007009746 0.8017676864 0.2825107525 -0.5266462302 0.5011595867 -0.7052469696 0.5014636383 0.8315167872 0.3294545557 -0.4472577874 -0.7671091984 0.3517938575 -0.5364555523 -0.3971287994 0.6001818659 -0.6943129298 0.4713513926 -0.7208649575 0.5081157129 0.4715122136 -0.7206576126 0.5082606003 0.4714868132 -0.7206423171 0.5083058487 0.4714771225 -0.7206415300 0.5083159532 0.4714898173 -0.7206416067 0.5083040694 0.4715264314 -0.7206418072 0.5082698203 -0.4589822177 0.8111319201 -0.3624918371 -0.4172718852 0.8916093342 -0.1758322183 -0.3588951621 0.9203707026 -0.1552804959 0.8960117180 -0.3820470873 0.2262808527 0.8601434279 -0.2572556262 -0.4404234624 0.3589204655 -0.8637758212 0.3536487384 0.5688350371 -0.1284826350 -0.8123539334 0.4960977351 -0.3086469051 -0.8115566063 -0.4085908623 -0.8914550161 0.1958608218 -0.5883416001 0.8051486966 -0.0747645499 0.3650346274 -0.0517558009 0.9295542254 0.3761521361 -0.0902016044 0.9221568419 0.2877387537 -0.2512245696 0.9241713181 0.6620527544 0.3143978171 0.6803235723 -0.1094503044 0.8284903954 -0.5492033281 -0.5354643220 -0.0884037229 -0.8399182946 -0.9076237256 0.2916066233 0.3019681273 -0.5111689484 0.5603242173 -0.6517231603 -0.5509340409 0.5403729553 -0.6359785780 -0.1164047031 0.2489346709 -0.9614995968 0.4477850913 -0.3092138121 0.8389727829 0.4430375143 -0.3584943345 0.8217052836
        </DataArray>
        <DataArray type="Float32" Name="contact force" NumberOfComponents="3" format="ascii">