<?xml version="1.0"?>
<VTKFile type="UnstructuredGrid" version="0.1" byte_order="LittleEndian">
  <UnstructuredGrid>
    <FieldData>
      <DataArray type="Float32" Name="TIME"  NumberOfTuples="1" format="ascii"> 0.7500000000 </DataArray>
      <DataArray type="Int32"   Name="STEP"  NumberOfTuples="1" format="ascii"> 75000 </DataArray>
    </FieldData>
    <Piece NumberOfPoints="248" NumberOfCells="248">
      <Points>
        <DataArray type="Float32" NumberOfComponents="3" format="ascii">
 1.0083055247 0.2066177422 -0.8783897048 1.1174225177 0.1254926330 -0.8592314498 1.0539738125 0.1311666571 -0.9817586602 1.1915642680 0.3492704263 -0.8545965207 1.2029392318 0.3432146562 -0.8617522044 1.2117003139 0.4320402029 -0.8760199503 1.2913560151 0.1675397229 -1.0550598371 1.2994955413 0.1738291689 -1.0557649862 1.2755446142 0.4409787142 -0.9690075071 1.2825816762 0.4410458764 -0.9828151986 1.3452782358 0.2225554793 -1.1408202416 1.2536516437 0.3718168744 -1.1412627493 1.2635963074 0.3685562307 -1.1506377755 1.2843597176 0.3830723151 -1.1602532231 1.3997808639 0.3754488951 -1.0201775032 1.4103323005 0.3668016791 -1.0283904608 1.4295098950 0.3519879133 -1.1231398567 1.6596629537 0.2526405352 -0.6666035699 1.6142893515 0.3092973004 -0.7600659759 1.6143920382 0.3045666030 -0.7684863344 1.7192063919 0.4949089378 -0.8416610571 1.7207711605 0.5049478171 -0.8604615763 1.7198658479 0.4854378711 -0.8617875017 1.6988074220 0.2648361467 -0.8849551588 1.7008809060 0.2779482851 -0.8934401942 1.6729354778 0.4437914174 -0.9653156641 1.6641821270 0.4264654750 -0.9500742581 0.8143123862 0.9015210655 -0.5801230655 0.8267160047 0.9029112578 -0.5822365807 0.8240385255 0.9042957633 -0.5698301188 0.8521689875 0.7250101538 -0.6537570607 0.9443915448 0.8196415428 -0.7061407786 0.8581226982 0.7203857914 -0.6539241559 0.9501863317 0.8111693201 -0.7104421905 0.8397867289 0.7976942573 -0.5286097928 0.8469732863 0.7913497011 -0.5310075814 1.3657869845 0.7327038926 -0.8872395111 1.2726681894 0.7244981049 -0.9381036471 1.2769579978 0.7280144125 -0.9416019471 1.2719981225 0.7300197768 -0.9450054224 1.1363812303 0.7563921359 -0.8916991967 1.3805458001 0.8355414296 -0.9447974811 1.2157096631 0.8362261124 -0.8651096197 1.2107182440 0.8373944972 -0.8705910539 1.2192540739 0.8410189147 -0.8706233154 1.2148026575 0.8423815516 -0.8764332065 1.2109326672 0.8442272876 -0.8829479814 1.0935349354 0.4493436121 -0.4191355758 0.9499627616 0.6446822579 -0.5300501912 1.1766391809 0.5146306162 -0.4735642995 1.1845137401 0.5134331386 -0.4830712290 1.1902104581 0.5290342630 -0.4827699523 1.1967518311 0.5269841900 -0.4910740930 1.0841171165 0.4381509014 -0.6336083656 1.0577698819 0.7405378016 -0.3907979807 1.0654796107 0.7659939973 -0.6055944164 1.2662894916 0.4977841741 -0.6105786378 1.2743231067 0.7995682804 -0.5312077991 1.2873396499 0.8162720573 -0.5430057872 1.2140371874 0.8870257119 -0.7024337524 1.4164886076 0.7349136090 -0.6569713749 1.5653969920 0.2890418783 -0.7713330398 1.2365138711 0.0503007889 -0.9560267318 1.2536025424 0.0649959182 -0.7800448768 1.2584156580 0.0743275734 -0.7798617024 1.3605924374 0.2164931716 -0.9247149152 1.4462162666 0.1219040000 -0.8041593535 1.4514307074 0.3468897556 -0.9068269919 1.4626326528 0.3538687923 -0.9049789275 1.2828726857 0.2925668604 -0.8004361334 1.3437228220 0.1963809152 -0.6827893606 1.2398954304 0.2385595086 -0.7180558036 1.3363303177 0.2906571606 -0.5827145914 1.4842390576 0.5436415326 -0.6074663428 0.8378846124 0.4430069424 -0.6229495649 0.8445963187 0.4568036889 -0.6137535682 0.8420520400 0.4693348867 -0.6030358906 0.8482850528 0.4783177942 -0.5976734456 0.8455522570 0.4872823383 -0.5896688867 0.8515109274 0.4941165429 -0.5860133023 0.8487489535 0.5017365998 -0.5790340098 0.8458751414 0.5093185295 -0.5721029626 0.8517963153 0.5147539441 -0.5695266394 0.8490019208 0.5224936345 -0.5624599542 0.8521390104 0.5363650024 -0.5522823999 0.8216251684 0.6067700738 -0.6479601185 0.8191022934 0.6105027008 -0.6416692396 0.8240164091 0.6151994362 -0.6433293741 0.8767051350 0.6549126264 -0.5141287836 0.8731240105 0.6635921854 -0.5229844215 0.9840895134 0.2906768297 -0.6402558000 0.9792632223 0.2824909193 -0.6370332731 0.9898066897 0.2908091387 -0.6436663140 0.9729485500 0.2770952228 -0.6330414353 0.9852651936 0.2812534963 -0.6405442064 0.9952005170 0.2927839361 -0.6469613345 0.9796093375 0.2746788958 -0.6368843291 0.9907519157 0.2815338170 -0.6438301006 1.0005126813 0.2967262995 -0.6502917273 1.0060126680 0.3030332506 -0.6538304676 1.0120580438 0.3125045151 -0.6578099237 0.8656807172 0.3107997659 -0.5011194333 1.0187278605 0.3102062493 -0.6616930518 1.0778929659 0.3109978272 -0.5994175512 0.8905676974 0.2349596287 -0.4939509413 0.8417611540 0.1620631355 -0.5200300938 0.8534475075 0.1376144776 -0.5284780351 1.0585020862 0.1122628800 -0.5710589156 1.0724245174 0.1303856073 -0.5797980815 1.0789361453 0.1398167519 -0.5839032373 1.0861565145 0.1440051265 -0.5883861252 1.6009666527 0.0938857429 -0.7344636905 1.4985298733 0.6884180044 -0.6693077003 1.5449475916 0.6646657204 -0.8046685219 1.5425695533 0.6674564520 -0.8106391250 1.5462463183 0.6735605482 -0.8088074247 1.4758466444 0.7436364240 -0.8262228026 1.2098845473 0.5013825034 -0.8508200740 1.2838821413 0.5006696916 -0.8505329627 1.2896326408 0.5197099352 -0.8460477487 1.2981187041 0.5114705610 -0.8554962804 1.1972670586 0.5535956732 -0.9979230951 1.3850895820 0.6376272387 -0.9337636325 1.3938978917 0.6395209145 -0.9399584751 1.4293079608 0.4512830062 -1.0117794873 1.4376050299 0.4610816387 -1.0146071013 1.4030309979 0.6415606215 -0.9464297332 1.4456444036 0.4706151940 -1.0175025621 1.3116801116 0.7294019464 -1.0445484716 1.4129112909 0.6439277703 -0.9535265077 1.3193582895 0.7270932884 -1.0538404189 1.4241651125 0.6468932517 -0.9617636729 1.3850370159 0.7499939717 -1.0400238311 1.3833594584 0.6139541944 -1.1508664752 1.4753444002 0.5393227546 -1.1143060861 1.3977741213 0.6252943405 -1.1630184693 1.5410620267 0.6496412285 -1.0541373025 1.5107208254 0.7012184655 -1.0665355860 1.2160197946 0.1366171177 -0.6066315669 1.2034688689 0.0450928415 -0.5382574630 1.0361489812 0.1554435709 -0.4793936349 1.1127902936 0.0946813831 -0.4633310810 1.0307192874 0.0558585247 -0.4385797437 1.0227014862 0.0638645564 -0.4485085584 1.7384471312 0.3913441515 -0.8425337874 0.9431643068 0.1162314278 -0.7550507027 0.9485618935 0.0778145345 -0.7877606990 0.9610048882 0.0738363155 -0.7841384068 0.9704931798 0.1693567740 -0.8203931228 0.9738457274 0.1668071203 -0.8210288408 0.9780112503 0.1697365618 -0.8199540697 0.9950261047 0.1964363660 -0.7541243142 1.0445342756 0.1288064549 -0.3454923781 1.0447874879 0.1346613729 -0.3511885044 1.0458329064 0.1400581908 -0.3580951731 1.2273215185 0.3736900209 -0.7975277069 1.3476534736 0.5564233711 -1.1890961297 1.3401135879 0.5614763909 -1.1850607292 1.3924417769 0.0524373524 -0.9740971719 1.3688819449 0.0668597816 -0.9318695623 1.3792329995 0.0708340269 -0.9314240022 1.3726929031 0.0731055386 -0.9274738787 1.4681219890 0.0955032313 -0.9879493922 1.4776662467 0.1082489766 -0.9875609775 1.3453980043 0.1734960490 -1.0249754068 1.3505454364 0.1769783852 -1.0254420301 1.6191606781 0.5684140212 -1.0113220696 1.5821166168 0.5712615607 -0.9218173087 1.5726262290 0.4422393913 -0.9780909926 1.5718187181 0.4372670018 -0.9822903581 1.5676217926 0.4353619198 -0.9775934167 1.5168533693 0.3517369193 -1.0392886370 1.5106576210 0.6247248518 -0.9027348120 1.4021091239 0.5881202042 -0.8341343130 0.9468236304 0.8977417132 -0.5102541293 0.9536618159 0.8966064131 -0.5063120184 0.8580263516 0.2796515509 -0.7402302383 0.8609011098 0.2751801711 -0.7469381111 0.9046312101 0.4157447638 -0.7850936828 0.9026431150 0.4166601553 -0.7928693899 0.9089255006 0.4107531059 -0.7936909317 1.0342416195 0.3952101601 -0.5235351592 0.9737544075 0.1564951696 -0.4361775932 0.9770755120 0.1620438149 -0.4388853704 1.1553692146 0.8868133814 -0.4243231611 1.3740975323 0.1386470628 -0.6220521596 1.3762813478 0.1367187838 -0.6271865905 1.2673291495 0.1536331588 -0.6380982690 1.5797237781 0.3565177414 -0.9995951842 1.4506132525 0.6965339274 -0.6421903516 1.3685437583 0.7768677083 -0.4798015084 1.3770693280 0.8055231212 -0.4869643564 0.8658094442 0.0596842843 -0.7361546906 0.8618842613 0.0561431715 -0.7408242446 0.8576055362 0.0650491770 -0.7374741130 0.8526890183 0.0616674564 -0.7418241555 1.1924977612 0.8369289459 -0.4157289625 1.0501761157 0.7958623236 -0.7604905725 1.1183724583 0.9171265145 -0.7341059130 1.1276318727 0.9169528454 -0.7458541257 1.0984689754 0.8942548719 -0.7616606847 0.7780641689 0.2192994817 -0.6583751819 0.8424814120 0.1372453955 -0.7261893210 1.4682709757 0.8778708779 -0.9526039926 1.5566769394 0.8637370995 -0.8976114593 1.4604709367 0.8818155144 -0.9442415274 1.5508302650 0.8488869890 -0.8922251659 1.5517965896 0.8427541817 -0.8949182618 1.5771593493 0.6363160436 -0.8525345442 1.5804342230 0.6405755032 -0.8556340751 1.5772678767 0.6436325641 -0.8592514959 1.5808496202 0.6493711914 -0.8635712539 1.5818963973 0.3402324654 -0.9582084021 1.3889467533 0.0378774430 -0.8587820112 1.4976917244 -0.0055148390 -0.9687234797 1.4958650367 -0.0018605842 -0.9594128309 0.9693993734 0.1400443846 -0.8778285074 1.4822609302 0.8281824187 -1.0619793725 1.4077761301 0.8675557030 -1.0457226898 1.4063361840 0.8702066600 -1.0416831507 1.4049513954 0.8729445070 -1.0375602410 1.4084357569 0.8760735362 -1.0364671359 1.4071121479 0.8793507081 -1.0317906704 1.2258315402 0.4910174035 -0.3896138898 1.0776377170 0.6208485964 -0.2971440158 1.3503535277 0.0869803605 -1.2188760214 1.3585973723 0.0974981500 -1.2113322796 1.3605451094 0.1027245449 -1.2062917909 1.3709060336 0.0280200263 -0.7908917865 1.3598816774 0.0274071312 -0.7845107948 1.3923213766 0.0317394469 -0.8006472206 1.2816319326 0.0499244502 -0.7631482929 1.4252239799 0.2619054337 -1.1906643139 0.8695106981 0.6344553709 -0.7102589850 0.8600347224 0.6225170297 -0.7119067140 1.0151492539 0.6526674784 -0.7383120140 0.9943643710 0.5200672773 -0.8206132525 0.9779896194 0.3334823640 -0.4264176257 0.9831933764 0.3239164307 -0.4283750536 1.2249490140 0.7980577132 -0.4527174943 1.2479881078 0.0441174108 -0.5495457911 1.2283144386 0.0262077974 -0.4796204763 1.2279970329 0.0274289312 -0.4751566651 0.8964584939 0.3901695586 -0.4858445146 0.8931625848 0.4433901597 -0.5357516988 0.8865406904 0.4412785361 -0.5333614273 1.3646048540 -0.0278566931 -0.6449990150 1.1741541888 0.8966119404 -0.7897287917
        </DataArray>
      </Points>
      <Cells>
        <DataArray type="Int32" Name="connectivity" format="ascii">
 0 1 2 3 4 5 6 7 8 9 10 11 12 13 14 15 16 17 18 19 20 21 22 23 24 25 26 27 28 29 30 31 32 33 34 35 36 37 38 39 40 41 42 43 44 45 46 47 48 49 50 51 52 53 54 55 56 57 58 59 60 61 62 63 64 65 66 67 68 69 70 71 72 73 74 75 76 77 78 79 80 81 82 83 84 85 86 87 88 89 90 91 92 93 94 95 96 97 98 99 100 101 102 103 104 105 106 107 108 109 110 111 112 113 114 115 116 117 118 119 120 121 122 123 124 125 126 127 128 129 130 131 132 133 134 135 136 137 138 139 140 141 142 143 144 145 146 147 148 149 150 151 152 153 154 155 156 157 158 159 160 161 162 163 164 165 166 167 168 169 170 171 172 173 174 175 176 177 178 179 180 181 182 183 184 185 186 187 188 189 190 191 192 193 194 195 196 197 198 199 200 201 202 203 204 205 206 207 208 209 210 211 212 213 214 215 216 217 218 219 220 221 222 223 224 225 226 227 228 229 230 231 232 233 234 235 236 237 238 239 240 241 242 243 244 245 246 247
        </DataArray>
        <DataArray type="Int32" Name="offsets" format="ascii">
 1 2 3 4 5 6 7 8 9 10 11 12 13 14 15 16 17 18 19 20 21 22 23 24 25 26 27 28 29 30 31 32 33 34 35 36 37 38 39 40 41 42 43 44 45 46 47 48 49 50 51 52 53 54 55 56 57 58 59 60 61 62 63 64 65 66 67 68 69 70 71 72 73 74 75 76 77 78 79 80 81 82 83 84 85 86 87 88 89 90 91 92 93 94 95 96 97 98 99 100 101 102 103 104 105 106 107 108 109 110 111 112 113 114 115 116 117 118 119 120 121 122 123 124 125 126 127 128 129 130 131 132 133 134 135 136 137 138 139 140 141 142 143 144 145 146 147 148 149 150 151 152 153 154 155 156 157 158 159 160 161 162 163 164 165 166 167 168 169 170 171 172 173 174 175 176 177 178 179 180 181 182 183 184 185 186 187 188 189 190 191 192 193 194 195 196 197 198 199 200 201 202 203 204 205 206 207 208 209 210 211 212 213 214 215 216 217 218 219 220 221 222 223 224 225 226 227 228 229 230 231 232 233 234 235 236 237 238 239 240 241 242 243 244 245 246 247 248
        </DataArray>
        <DataArray type="UInt8" Name="types" format="ascii">
 1 1 1 1 1 1 1 1 1 1 1 1 1 1 1 1 1 1 1 1 1 1 1 1 1 1 1 1 1 1 1 1 1 1 1 1 1 1 1 1 1 1 1 1 1 1 1 1 1 1 1 1 1 1 1 1 1 1 1 1 1 1 1 1 1 1 1 1 1 1 1 1 1 1 1 1 1 1 1 1 1 1 1 1 1 1 1 1 1 1 1 1 1 1 1 1 1 1 1 1 1 1 1 1 1 1 1 1 1 1 1 1 1 1 1 1 1 1 1 1 1 1 1 1 1 1 1 1 1 1 1 1 1 1 1 1 1 1 1 1 1 1 1 1 1 1 1 1 1 1 1 1 1 1 1 1 1 1 1 1 1 1 1 1 1 1 1 1 1 1 1 1 1 1 1 1 1 1 1 1 1 1 1 1 1 1 1 1 1 1 1 1 1 1 1 1 1 1 1 1 1 1 1 1 1 1 1 1 1 1 1 1 1 1 1 1 1 1 1 1 1 1 1 1 1 1 1 1 1 1 1 1 1 1 1 1 1 1 1 1 1 1 1 1 1 1 1 1
        </DataArray>
      </Cells>
      <PointData Scalars="overlap">
        <DataArray type="Float32" Name="overlap" format="ascii">
 0.0000760284 0.0007203683 0.0000738532 0.0000808274 0.0000436280 0.0001564286 0.0000483831 0.0002390865 0.0003587247 0.0000340371 0.0000088512 0.0000843719 0.0000558724 0.0003705018 0.0000203818 0.0002352532 0.0001223188 0.0001715232 0.0003369016 0.0001438874 0.0002928598 0.0000406382 0.0004046621 0.0002288740 0.0001425203 0.0001106631 0.0004553149 0.0000291149 0.0001189374 0.0001612221 0.0002141393 0.0000415609 0.0000084766 0.0001708863 0.0001179685 0.0001169780 0.0002914830 0.0003028848 0.0006082996 0.0001042974 0.0000253041 0.0001086291 0.0000889700 0.0001490679 0.0001642556 0.0003439523 0.0001353768 0.0000078496 0.0002402728 0.0001234043 0.0000406984 0.0000288549 0.0000573420 0.0002988347 0.0002295274 0.0000451248 0.0000841609 0.0000780409 0.0000242873 0.0001721716 0.0001113072 0.0000731358 0.0000272918 0.0000501352 0.0000698704 0.0002266184 0.0000356594 0.0000643122 0.0001240311 0.0001022491 0.0001195674 0.0000793857 0.0000085165 0.0000017901 0.0000026576 0.0000034320 0.0000443861 0.0000563973 0.0000612379 0.0000243075 0.0000534956 0.0000113208 0.0000208084 0.0000229383 0.0000053458 0.0000087956 0.0001231968 0.0000917324 0.0000274617 0.0000497629 0.0000579902 0.0000444338 0.0000810470 0.0000200187 0.0000414659 0.0000952639 0.0000001467 0.0000014230 0.0001107691 0.0001242403 0.0001088283 0.0000183366 0.0001266368 0.0000287371 0.0000231729 0.0000068492 0.0000251466 0.0000010859 0.0000903603 0.0000474134 0.0000197638 0.0000692722 0.0002115504 0.0000058685 0.0001696328 0.0000303779 0.0002444332 0.0002574291 0.0002264969 0.0002399785 0.0001500088 0.0001399247 0.0000196828 0.0000340743 0.0000832844 0.0002062110 0.0000449149 0.0001377268 0.0007688838 0.0000550864 0.0007624121 0.0000562963 0.0000440151 0.0000485262 0.0001057162 0.0002568473 0.0001507899 0.0000259454 0.0000152217 0.0000559323 0.0001024781 0.0000289904 0.0000706316 0.0000110047 0.0000137468 0.0000205737 0.0000186245 0.0000869995 0.0000129376 0.0000475420 0.0000146921 0.0000289592 0.0000032532 0.0003903902 0.0000529832 0.0000144745 0.0001149005 0.0000783039 0.0001015958 0.0000163048 0.0000314343 0.0000878390 0.0000512445 0.0000338903 0.0002103124 0.0000329099 0.0000816078 0.0000166461 0.0001224401 0.0000964532 0.0001214359 0.0001025384 0.0001022284 0.0000049712 0.0000606709 0.0000681183 0.0003672852 0.0001189714 0.0001991438 0.0003526604 0.0002499668 0.0000017227 0.0001278256 0.0000279261 0.0000069350 0.0002052296 0.0000667711 0.0000597475 0.0001746679 0.0001036186 0.0001127177 0.0000254254 0.0000818498 0.0000497980 0.0001078045 0.0004101344 0.0001145082 0.0000091190 0.0000221945 0.0000078344 0.0001607666 0.0000725117 0.0000971187 0.0001049671 0.0000638094 0.0000307308 0.0000342722 0.0000919597 0.0000027572 0.0000418167 0.0000518795 0.0000055880 0.0000133578 0.0000491291 0.0000384420 0.0000517394 0.0000672951 0.0000533214 0.0000091498 0.0000258783 0.0000100959 0.0000216686 0.0000200042 0.0000968120 0.0000681211 0.0000474060 0.0000639436 0.0000237087 0.0000381666 0.0000210497 0.0000235721 0.0000044451 0.0000739456 0.0000266796 0.0000209514 0.0000240313 0.0000403566 0.0000204422 0.0000089272 0.0000295810 0.0000199001 0.0000407111 0.0000663258 0.0000170917 0.0000160875 0.0000202378 0.0000711271 0.0000250215
        </DataArray>
        <DataArray type="Float32" Name="contact normal" NumberOfComponents="3" format="ascii">
 0.6105167948 -0.1861519493 -0.7698160138 -0.4473569896 0.7593983709 -0.4724254842 0.4476167541 0.8663174084 0.2216605270 -0.6040833034 0.0506192847 -0.7953119203 -0.5014129820 -0.0160966286 -0.8650583333 0.2308713778 -0.7542729171 -0.6146305991 -0.6845960962 0.7048252093 -0.1858752524 -0.6341545952 0.7454013460 -0.2054866974 -0.3752845687 -0.9159032616 -0.1424173721 -0.3535435981 -0.8372832332 -0.4170895727 -0.4274485845 0.4522017408 0.7828162576 0.4687458820 -0.5355676023 0.7024561492 0.4507026907 -0.5595477280 0.6955382267 0.5138940934 -0.4735862910 0.7152823818 -0.6835003874 0.1633798639 -0.7114311214 -0.6686197277 0.0068251360 -0.7435731822 -0.2218676438 -0.1087772453 0.9689903300 -0.8831541725 0.3765306833 -0.2797558794 0.9031877832 -0.2592987135 0.3420760228 0.9323734325 -0.2507925022 0.2603514993 -0.9910480549 -0.1105811069 -0.0748035535 -0.9929675312 -0.0552294371 -0.1047148090 -0.9859121028 -0.1318710995 -0.1028947945 -0.9548351047 0.2413500761 0.1733206959 -0.8887699692 0.4555535832 -0.0505853212 0.9130691264 -0.0185674876 0.4073819077 0.8751765763 -0.1331757346 0.4651130874 0.1206232920 -0.9849675847 0.1236482048 0.1843965698 -0.9718605442 0.1465775827 0.1844420350 -0.9718494717 0.1465937928 0.4447549961 0.8942367441 -0.0503352648 -0.5221525076 -0.5275933616 0.6700761178 0.6754284596 0.7239481926 0.1403403377 -0.4329599947 -0.6932954191 0.5760964371 0.2454330692 0.5590018415 -0.7920098167 0.2757258440 0.5212446591 -0.8076380776 -0.7229712682 0.6826314560 0.1064276309 -0.4518862686 0.6593251650 0.6009069204 -0.3885878026 0.6758283360 0.6263031055 -0.4233354839 0.6843643345 0.5936602780 0.7952543799 0.1536117807 0.5864928747 0.0616153278 -0.7198888699 0.6913490916 0.2845641787 -0.8498598823 -0.4435779623 0.2920614825 -0.8446971498 -0.4485385329 0.3916187881 -0.7931372408 -0.4664418956 0.3736964821 -0.8033828340 -0.4636021584 0.3612661253 -0.8102322610 -0.4615305731 0.1594409193 0.8098573709 -0.5645437379 0.6540613870 -0.4548075605 0.6044450222 -0.7224536129 0.2890712581 -0.6280912234 -0.7183059708 0.2674005849 -0.6422876766 -0.7143851570 0.3341045269 -0.6148398268 -0.7153682529 0.2994638083 -0.6313237603 0.3866852817 0.5167025342 0.7638671246 -0.1829484808 -0.4192016758 -0.8892692553 0.3945679056 -0.9172787514 0.0539987051 -0.8620691133 0.3869908159 -0.3272230926 -0.5919999245 -0.1643922350 -0.7889938418 -0.4502718619 -0.1653065704 -0.8774559751 0.3479008621 -0.7584131703 0.5511573762 -0.7768827622 -0.0349238926 -0.6286759861 0.7436530340 -0.4215285307 0.5189353166 -0.0688702957 -0.4278814208 0.9012071749 -0.4401394135 0.2099128075 -0.8730486298 -0.4550310451 0.2817229667 -0.8447360049 0.1428567167 0.6255440887 0.7669984039 -0.1945271784 0.8883141566 -0.4160013656 -0.4034978204 -0.7588878707 0.5111542904 0.6824663802 -0.4272237682 0.5930594337 0.6858398397 -0.3178073798 0.6546924344 -0.2630480924 0.6100585179 -0.7474184275 0.8982937873 0.3976480020 -0.1869340477 -0.2538085445 0.6880400222 -0.6798397977 -0.5870369477 -0.7918983712 -0.1681802360 -0.2363578530 0.6094458258 -0.7567765527 -0.1859321756 0.6084304238 -0.7715190506 -0.2363997988 0.6094644746 -0.7567484320 -0.1861946109 0.6084409880 -0.7714474260 -0.2364154947 0.6094645343 -0.7567434805 -0.2363195872 0.6094641684 -0.7567737311 -0.2364197431 0.6094645504 -0.7567421403 -0.2365209728 0.6094649296 -0.7567102015 -0.2364197452 0.6094645504 -0.7567421396 -0.2365202865 0.6094649273 -0.7567104178 -0.2365227668 0.6094649586 -0.7567096174 0.6277578297 -0.6058608415 0.4887256366 0.6467893653 -0.5486081098 0.5298043589 0.6487772284 -0.5417664124 0.5343942948 -0.3578935617 -0.9024418595 -0.2398142797 0.2246556182 -0.5850879042 -0.7792316713 0.5078860363 0.0393519715 0.8605249540 0.5081816772 0.0389312918 0.8603695354 0.5083078372 0.0387520811 0.8603030971 0.5081391524 0.0389918107 0.8603919110 0.5087275790 0.0381539269 0.8600816986 0.5085533574 0.0384024099 0.8601736671 0.5088268115 0.0380125361 0.8600292571 0.5453024568 -0.0157572774 0.8380912473 0.5086384218 0.0382919381 0.8601282947 0.5086464875 0.0385253092 0.8601131038 0.5082720695 0.0391241911 0.8603073875 -0.5419195579 -0.2199550945 -0.8111368252 0.5096136042 0.0395363653 0.8594945318 -0.4819856750 -0.1174558248 -0.8682706596 -0.2175234933 -0.3095769642 -0.9256595665 0.9017975857 0.4310905584 0.0303651922 0.9223639233 0.3715147232 -0.1059320697 -0.5075476586 -0.0340397561 -0.8609510261 -0.5079910136 -0.0303735322 -0.8608266833 -0.5265095453 -0.0009661608 -0.8501686687 -0.5082555103 -0.0293950132 -0.8607045192 -0.5686784142 0.5032414435 -0.6506557544 0.4301110503 0.1301509741 -0.8933449548 -0.7845915013 0.3572102348 0.5067711755 -0.7866237616 0.3554979091 0.5048210518 -0.7818363771 0.3602236781 0.5088917185 0.5242808980 -0.6971208842 0.4890317094 0.2526543547 0.8949735953 -0.3676792634 -0.8155881408 -0.4207821055 -0.3971881220 -0.3135043650 0.5987872703 -0.7369998766 -0.2773197010 0.5547096743 -0.7844685849 0.7051611013 -0.1273646637 0.6975142032 -0.4174436401 -0.5144841754 -0.7490306006 -0.4176505380 -0.5143674599 -0.7489954235 -0.7019203661 0.4226416456 -0.5733078048 -0.7019253468 0.4226521440 -0.5732939671 -0.4177625766 -0.5141598116 -0.7490755087 -0.7019297599 0.4226614458 -0.5732817060 0.2367685835 -0.8607577693 0.4505959391 -0.4180717518 -0.5138609634 -0.7491080834 0.3188559314 -0.8856751611 0.3375061540 -0.4190728380 -0.5138781505 -0.7485367078 0.0338978455 -0.8558375565 0.5161327475 0.5319045086 0.0715827370 0.8437733733 -0.6919574936 0.5024218381 0.5184275491 0.6386345232 0.2285385069 0.7347898316 -0.8667902135 0.4923456396 0.0791864693 -0.5011928606 -0.7053659289 -0.5012630276 -0.4593304147 0.4185936315 0.7834506633 -0.8465610066 0.5001130276 -0.1822674456 -0.0228889565 -0.4884263869 -0.8723048551 -0.4436581289 -0.0347219397 -0.8955232278 0.7258755442 0.2132434909 -0.6539357063 0.7224491512 -0.0126817038 -0.6913077450 -0.8200778296 0.5709581810 0.0384591843 -0.0464405203 0.0217155107 -0.9986849927 0.2822406206 0.9587823720 0.0328115108 0.3066483954 0.9507804755 0.0445336840 -0.0569467086 -0.2837307618 0.9572115373 -0.0484502845 -0.2928916814 0.9549172911 -0.0448900260 -0.2969844223 0.9538265767 -0.1789938103 -0.4125489930 -0.8931766590 0.7526222010 0.4238211515 0.5039200870 0.7511948773 0.4686608858 0.4648260218 0.7608587536 0.4645323357 0.4531044759 -0.0274538933 0.8052343822 0.5923207521 0.6260161754 0.7383359718 0.2509257676 0.5842927228 0.7855270595 0.2038363383 0.1021445377 0.9310418186 0.3503250283 -0.3100780601 0.6387892328 -0.7041306077 -0.2439322047 0.6631705838 -0.7076028945 -0.2691028427 0.6555226137 -0.7056017028 -0.7588560092 0.5314539003 -0.3764230454 -0.7407938066 0.5698224739 -0.3557061771 0.3771195800 -0.6182058095 0.6896393257 0.3794347050 -0.6085659718 0.6969051317 -0.6549013459 -0.7083197686 0.2634147539 0.1468601538 -0.6624405178 -0.7345778758 -0.6883987838 0.7183887915 -0.1001232175 -0.6967478843 0.4446011578 -0.5629140220 -0.7915654697 0.3517552647 -0.4996922462 -0.6054427686 0.7918000039 0.0805717555 -0.7652092311 0.4516743584 -0.4587429636 -0.2589035308 0.5700737787 -0.7797338319 -0.4237142371 0.3537322583 0.8338703345 -0.4235932464 0.3482358658 0.8362419167 0.7140255767 0.6979315701 -0.0553082213 0.5535385881 0.7062093028 -0.4414334062 -0.6101685732 -0.7784849439 0.1471580933 -0.6410463665 -0.7601940825 0.1056622586 -0.6377114706 -0.7629892959 0.1056949129 0.7383150065 -0.6696647905 0.0802497324 -0.5395274581 -0.2028709239 -0.8171618630 -0.0151733327 -0.1888754020 -0.9818838284 -0.1210089673 -0.0548740243 -0.9911335285 -0.6339483315 0.5783131596 -0.5134816476 -0.6338082850 0.5772400279 -0.5148601831 0.8473529526 -0.3051975291 0.4345658085 -0.5134014749 -0.4375295731 -0.7382322116 0.9365551993 -0.1550399254 0.3143675876 0.0547750066 -0.2406180762 -0.9690730829 0.0654806443 -0.2407651109 -0.9683720600 0.5715228490 0.6031516363 -0.5563899143 0.4200712102 0.3589804452 -0.8334705864 0.4424321777 0.6733801227 -0.5922946720 0.3141266432 0.4431898686 -0.8395875132 -0.0831602467 0.2455662091 0.9658061971 -0.2062651665 0.8931860022 -0.3995915997 -0.9069210272 -0.0466644787 -0.4187083433 -0.8456491166 0.1767535030 -0.5036226471 0.3294508554 -0.3724845793 0.8675928608 -0.3848727885 0.4575186810 -0.8015919119 -0.3910621536 0.2641937115 -0.8816303504 0.7172673774 -0.4832175901 0.5020241727 -0.8509543847 0.1371805407 -0.5070090082 0.6874236227 0.1223657766 0.7158738574 -0.8566033180 0.1402513495 -0.4965484010 -0.8208293289 0.1215388192 -0.5580927596 0.1684105923 -0.6721442418 -0.7210131695 0.1724377645 -0.6696677169 -0.7223644277 0.1680654260 -0.6701924132 -0.7229081144 0.1988843520 -0.6590142065 -0.7253587321 -0.3622481095 0.9310723587 -0.0433655386 -0.4729087209 0.4482761240 -0.7585551122 -0.1561976263 0.8246781657 -0.5436066818 -0.1627491438 0.8519835097 -0.4976312042 0.3284957601 0.8254808449 0.4589900982 0.9883094296 -0.1514135882 -0.0178436747 0.3883363588 -0.7017029188 0.5973339820 0.3882602798 -0.7017439720 0.5973352098 0.3883501144 -0.7027063365 0.5961442722 0.4286151876 -0.6783735547 0.5967397600 0.4287712354 -0.6782879824 0.5967249288 -0.6673856010 0.3756594185 -0.6430213534 -0.2746330246 0.5673656393 -0.7763201228 0.3578615504 -0.7134107565 0.6024783841 0.3580309082 -0.7132072671 0.6026186712 0.3580037853 -0.7131856103 0.6026604142 -0.3453284980 0.8160032691 -0.4635589427 -0.3096873030 0.9082669393 -0.2813271072 -0.2507639454 0.9328464389 -0.2586792708 0.8340090453 -0.4418594774 0.3304377619 0.8605997562 -0.3700011321 -0.3499531709 0.6127039537 -0.2527837691 -0.7487951864 0.5224590719 -0.4246467957 -0.7393994976 -0.5111091910 -0.8281741090 0.2299892174 -0.4963825920 0.8477978133 -0.1866633067 0.6379358498 0.3112701721 0.7043782588 0.7840394872 0.2823610909 0.5527696599 -0.4770120816 -0.1114873612 -0.8717970190 -0.8936960229 0.4011420639 0.2009787629 -0.8809914969 0.4319787610 -0.1929982706 -0.8857522385 0.4316564865 -0.1706330846 -0.3356145199 -0.7126401498 0.6160413224 -0.4017024519 0.5451848041 -0.7358047768 -0.4443667594 0.5305568136 -0.7218363047 -0.0194891606 0.1673954482 -0.9856971830 0.3419962941 -0.3231327097 0.8823966153
        </DataArray>
        <DataArray type="Float32" Name="contact force" NumberOfComponents="3" format="ascii">