<?xml version="1.0"?>
<VTKFile type="UnstructuredGrid" version="0.1" byte_order="LittleEndian">
  <UnstructuredGrid>
    <FieldData>
      <DataArray type="Float32" Name="TIME"  NumberOfTuples="1" format="ascii"> 1.1500000000 </DataArray>
      <DataArray type="Int32"   Name="STEP"  NumberOfTuples="1" format="ascii"> 115000 </DataArray>
    </FieldData>
    <Piece NumberOfPoints="268" NumberOfCells="268">
      <Points>
        <DataArray type="Float32" NumberOfComponents="3" format="ascii">
 2.0613406840 0.1861087163 -1.9367127791 2.1811183773 0.1239389252 -1.9085983451 2.1077469823 0.1180628960 -2.0447440656 2.1921823943 0.1217774504 -1.9258301664 2.2361997967 0.0976672778 -2.0749006149 2.2369041048 0.3379725982 -1.9120120761 2.2483600724 0.3329066984 -1.9197823085 2.2516037657 0.4226378206 -1.9302250373 2.3401222956 0.1713146479 -2.1235302722 2.3478642595 0.1780915780 -2.1241957263 2.3117321726 0.4393479025 -2.0246168714 2.3879768757 0.2330757646 -2.2082938300 2.2880812205 0.3766527676 -2.1991156136 2.2978774188 0.3743915832 -2.2089311183 2.3174492295 0.3904991111 -2.2185102814 2.4484614942 0.3757778598 -2.0914157750 2.4652925182 0.3662787185 -2.1873106480 2.7156260400 0.2604918133 -1.7429678829 2.6640366759 0.3184374702 -1.8323579444 2.6641562512 0.3140914113 -1.8409830488 2.7553975902 0.5133201315 -1.9084588791 2.7560623742 0.5048189107 -1.9289988702 2.7468666091 0.2845746970 -1.9616002017 2.7478961286 0.2981588184 -1.9695408947 2.7081893794 0.4650441040 -2.0328887171 2.7009389950 0.4465779733 -2.0182050842 1.9198440255 0.7659985399 -1.7683685814 1.9232304169 0.7568323857 -1.7742924119 1.8531632171 0.8559117381 -1.6153700917 1.8510110423 0.8572225061 -1.6037796345 1.8837625322 0.6841299882 -1.6835682295 1.9687504133 0.7858593489 -1.7348567413 1.9748707455 0.7779525008 -1.7397275657 1.8717141160 0.7508185025 -1.5550852117 1.8791506103 0.7449930981 -1.5579781876 2.2968807184 0.7298681921 -1.8617662711 2.3879733800 0.7319669343 -1.9322017558 2.2938831728 0.7204907745 -1.9806010261 2.2978402056 0.7244055284 -1.9840592402 2.2926691937 0.7262587460 -1.9872198892 2.1576274230 0.7423761396 -1.9286626357 2.3949301924 0.8378903591 -1.9855239423 2.2330083849 0.8254776150 -1.9009786998 2.2277808354 0.8265907306 -1.9062474719 2.2360937300 0.8307014162 -1.9063775439 2.2313823852 0.8320533885 -1.9119816833 2.2272010947 0.8339517699 -1.9182852770 2.1479306452 0.4129903681 -1.4696743774 1.9898404161 0.6042825380 -1.5670467052 2.2253452147 0.4853114674 -1.5235466243 2.2329362488 0.4850014546 -1.5333496653 2.2377413498 0.5008798876 -1.5325102594 2.2440929330 0.4995884202 -1.5411086481 2.1320206501 0.4106850505 -1.6840222651 2.0966206956 0.7000738976 -1.4268558245 2.0956908804 0.7353276170 -1.6404608191 2.3111497891 0.4797836798 -1.6639056630 2.3191002420 0.4909491774 -1.6646759301 2.3162872673 0.7956696708 -1.5824910013 2.2338177750 0.8689438160 -1.7361586878 2.6160321512 0.2959197733 -1.8426696166 2.6032257560 0.1555587409 -1.8586558496 2.3094426377 0.0462550385 -2.0288289708 2.4108125845 0.2184867155 -1.9932674471 2.4947442441 0.3529916155 -1.9721122614 2.5055592382 0.3605259937 -1.9703008132 2.3330390494 0.2844344089 -1.8633292145 2.4029420856 0.1868017378 -1.7520811687 2.2958349999 0.2244853555 -1.7822861464 1.8979174671 0.4055331955 -1.7736910249 1.8926749241 0.4003118810 -1.7633701185 1.8897218702 0.4264229125 -1.6446578958 1.8956102380 0.4355075275 -1.6390818511 1.8926413980 0.4439372295 -1.6305950246 1.8983211217 0.4509388874 -1.6268144265 1.8953652599 0.4580703895 -1.6194111285 1.8922983499 0.4651594906 -1.6120543152 1.8979840829 0.4708114538 -1.6094143858 1.8949919886 0.4780565394 -1.6019173446 1.8600342492 0.5642885816 -1.6825755832 1.8575129293 0.5675882483 -1.6760465666 1.8620955172 0.5726308239 -1.6776387911 1.9167275288 0.6096018754 -1.5484325900 1.9123681648 0.6184423133 -1.5567675328 1.9814465316 0.3407386572 -1.5971002759 2.0402630481 0.2581340172 -1.6943072442 2.0360188062 0.2495478659 -1.6913153705 2.0458468679 0.2587480203 -1.6978820352 2.0301567147 0.2436242204 -1.6873822151 2.0419611710 0.2488167403 -1.6950617341 2.0510073597 0.2611757463 -1.7012474204 2.0559735689 0.2655626125 -1.7045557444 2.0609861191 0.2723278425 -1.7079698575 2.0663487032 0.2823000190 -1.7116962275 1.9255961455 0.2652108724 -1.5508333601 2.0730052637 0.2805660269 -1.7158831737 2.1340704727 0.2820619613 -1.6554851346 1.9549744715 0.1907050716 -1.5479046317 1.9095413865 0.1163122761 -1.5757686009 1.9223179891 0.0929837009 -1.5856821003 1.9981717638 0.0091673019 -1.5748859492 2.1269345496 0.0814836340 -1.6356596313 2.1395103612 0.1007512387 -1.6439813313 2.1453379640 0.1107160288 -1.6478467900 2.1521558911 0.1155098113 -1.6523532004 2.5863890390 0.0830862713 -2.0054936415 2.6639070817 0.1017204900 -1.8163051552 2.1485200107 0.2821619693 -1.5920387083 2.5302215905 0.6860267992 -1.7208388128 2.4760611437 0.6148137006 -1.8740094416 2.5898672174 0.8083119056 -1.7536642931 2.5733625002 0.6708041048 -1.8584886654 2.5706209274 0.6736740884 -1.8642632234 2.5739820120 0.6799162535 -1.8622985880 2.4987987696 0.7459776567 -1.8744564894 2.2469174193 0.4905476485 -1.9017306416 2.3207593595 0.4941628974 -1.9037791282 2.3255952423 0.5133331035 -1.8986104919 2.3342209717 0.5060206017 -1.9086772970 2.2173289899 0.5504893636 -2.0355039678 2.2209417941 0.5646001595 -2.0359123077 2.2229909864 0.5779001207 -2.0345320404 2.2315420722 0.5755540136 -2.0448977718 2.2323139079 0.5882118886 -2.0420024346 2.2396444524 0.5851031982 -2.0514483968 2.2396126371 0.5973776295 -2.0474361143 2.4026739794 0.6376264499 -1.9774482650 2.4111675904 0.6403029326 -1.9838257160 2.4196431634 0.6429772373 -1.9901944865 2.4633199092 0.4604517732 -2.0714905467 2.4709472138 0.4708312702 -2.0741253576 2.4284253147 0.6458282373 -1.9968425668 2.4783301743 0.4809341498 -2.0768320668 2.3289057550 0.7324889006 -2.0881585681 2.4856283516 0.4908632871 -2.0797428955 2.4379135797 0.6490768109 -2.0041231984 2.3363506682 0.7310986257 -2.0977635219 2.4487004065 0.6530522510 -2.0125573015 2.4011453625 0.7569740333 -2.0848735313 2.4924907025 0.5483772087 -2.1761283343 2.4035765075 0.6259547105 -2.2016136245 2.5008342805 0.5553619637 -2.1712608542 2.4169190970 0.6386382222 -2.2136630403 2.5621007468 0.6666433758 -2.1082573369 2.0608382285 0.7262177227 -1.9602575784 2.0690126776 0.7268029055 -1.9640542743 2.0635234621 0.7369504267 -1.9662592372 2.0765353725 0.7271942989 -1.9677966132 2.0719112889 0.7372268665 -1.9701475930 2.1521406261 0.6163661676 -2.0582928733 2.0835478259 0.7278059974 -1.9713304644 2.1530920643 0.6241748227 -2.0518096231 2.0798091642 0.7376542646 -1.9738506245 2.1572953783 0.6274521365 -2.0608787529 2.0873347367 0.7383578771 -1.9775378294 2.1582080471 0.6346564326 -2.0548893778 2.1591698740 0.6413404100 -2.0496559659 2.1636341586 0.6464747729 -2.0585285994 2.1650014691 0.6532565965 -2.0541628531 2.2815702788 0.1164453789 -1.6749187554 2.2764842271 0.0214155887 -1.6104942735 2.1052739258 0.1191619074 -1.5414708176 2.1857252562 0.0622891824 -1.5305882618 2.1784541581 0.0655256409 -1.5260978081 2.1068495842 0.0177196143 -1.5051570979 2.0980609373 0.0256773413 -1.5144501458 2.7805143186 0.4111064752 -1.9149847794 2.0306499100 0.1417431430 -1.8802088819 2.0409191447 0.1018564062 -1.3919670117 2.0420630854 0.0972511919 -1.3888795934 1.8715002757 0.8818032002 -1.5246170438 2.1585799006 0.4560912688 -1.8708256182 2.2728382591 0.3618037878 -1.8549513934 2.3698501323 0.5683537896 -2.2413564468 2.3621734068 0.5727757325 -2.2368638203 2.4502181724 0.0588497452 -2.0510169156 2.4272913679 0.0700550349 -2.0074720690 2.4374101513 0.0746000073 -2.0071626150 2.4308866945 0.0763128257 -2.0029145992 2.5228346771 0.1068253894 -2.0652095004 2.5316526092 0.1200723283 -2.0645360474 2.3947174555 0.1790761234 -2.0948990124 2.3996407689 0.1828687834 -2.0953648340 2.3328490171 0.1232715376 -1.5654969216 2.6460469549 0.5882142486 -2.0715515479 2.6119069310 0.5849413058 -1.9809056362 2.6121935592 0.4609954799 -2.0475778603 2.6078288132 0.4582139757 -2.0427368946 2.6071670925 0.4533852042 -2.0471425912 2.6032389586 0.4510338539 -2.0424116589 2.5552510672 0.3674130196 -2.1062707083 2.0058793500 0.8592870076 -1.8491737298 2.5381691528 0.6334236167 -1.9572349894 2.4416799944 0.5833569686 -1.8931056631 2.4342138807 0.5875315193 -1.8871196417 1.9730914822 0.8556573828 -1.5356072993 1.9801102247 0.8547519112 -1.5319320711 1.9119083377 0.2442855784 -1.7911359228 1.9933832959 0.2427021747 -1.8886399348 1.9494518333 0.3849591054 -1.8305853966 2.0443489951 0.1146795210 -1.4963517049 2.0802112578 0.1534209412 -1.5179018679 1.9861781656 0.2265566423 -1.5422110357 2.3658528131 0.0160105922 -1.8290069597 2.1846020352 0.8530767137 -1.4567086687 2.0473981795 0.8896891202 -1.5793647384 2.4229740747 0.2019031087 -1.6620191671 2.4393341622 0.1352984263 -1.6890985050 2.4415995877 0.1336358164 -1.6939088560 2.4367381798 0.1298977280 -1.6901536217 2.3308065276 0.1376996589 -1.7070834619 2.0161380498 0.8398827184 -1.9064071515 2.1379592379 0.7880889812 -1.9872436447 2.1081175985 0.9031410862 -1.9827025875 2.4080946931 0.7559072376 -1.6005376265 2.4015204683 0.7584100116 -1.5236245522 2.1519402979 0.9023402214 -1.8944686205 2.1653132733 0.9026730996 -1.9004082672 2.2251016263 0.9259008669 -2.0698592796 2.0736540578 0.7710542105 -1.7932363756 2.1356994009 0.8947794875 -1.7634942693 2.1445620095 0.8956544016 -1.7755156917 2.1162401546 0.8720082624 -1.7914397883 1.8381636378 0.1757926894 -1.7094172043 1.9048119248 0.1006494294 -1.7828493581 2.4798894261 0.8856174189 -1.9941144709 2.5707280662 0.8742442851 -1.9425386301 2.4721377120 0.8887353113 -1.9853594700 2.5671296541 0.8529153684 -1.9406735634 2.6055539746 0.6465677170 -1.9086772925 2.6084735594 0.6511473318 -1.9116740219 2.6234604129 0.3561273043 -2.0279315640 2.4513580292 0.0390544631 -1.9364780639 2.4528954301 0.0335302183 -1.9430770770 2.5586349377 0.0069016502 -2.0515441584 2.5569171181 0.0100350025 -2.0420262895 2.0262661184 0.1173717481 -1.9379851504 2.0864091032 0.2914076669 -1.9017242342 2.4930730713 0.8415937208 -2.1058498385 2.4932661546 0.8501957849 -2.1054320416 2.2835019861 0.4573136275 -1.4501969819 2.1243085870 0.5779727413 -1.3385827395 2.3981481701 0.1015176084 -2.2925587669 2.4060276182 0.1121576702 -2.2848001531 2.4078415336 0.1172638855 -2.2795894134 2.4172022083 0.1274816024 -2.2734154804 2.4361261867 0.0251685325 -1.8685740777 2.4253688042 0.0236397014 -1.8618977952 2.4569648069 0.0305488165 -1.8787929179 2.3467218187 0.0406342276 -1.8371517534 2.4638672270 0.2791053393 -2.2586657539 2.8461846616 0.3106065399 -1.8440898526 1.9041463957 0.5972634986 -1.7450138632 1.8953120865 0.5848761843 -1.7469066031 2.0474724529 0.6252373476 -1.7766007458 2.0316475574 0.4954225872 -1.8642603948 2.0825171655 0.6996910130 -1.8291740843 2.0850866866 0.6961721569 -1.8303444697 2.1257230080 0.4634698819 -1.9806316118 2.0388925905 0.2911219834 -1.4787191108 2.2581310394 0.7700318289 -1.4912375382 2.3205683224 0.0234855103 -1.6231378263 2.3060136072 0.0020669516 -1.5628638088 1.9443910831 0.4005231471 -1.5802350005 1.9379824005 0.3979271750 -1.5777428708 2.4378073145 -0.0372258272 -1.7252035388 2.1975288609 0.8859177030 -1.8225023306 2.1906518260 0.8799826413 -1.8216716847
        </DataArray>
      </Points>
      <Cells>
        <DataArray type="Int32" Name="connectivity" format="ascii">
 0 1 2 3 4 5 6 7 8 9 10 11 12 13 14 15 16 17 18 19 20 21 22 23 24 25 26 27 28 29 30 31 32 33 34 35 36 37 38 39 40 41 42 43 44 45 46 47 48 49 50 51 52 53 54 55 56 57 58 59 60 61 62 63 64 65 66 67 68 69 70 71 72 73 74 75 76 77 78 79 80 81 82 83 84 85 86 87 88 89 90 91 92 93 94 95 96 97 98 99 100 101 102 103 104 105 106 107 108 109 110 111 112 113 114 115 116 117 118 119 120 121 122 123 124 125 126 127 128 129 130 131 132 133 134 135 136 137 138 139 140 141 142 143 144 145 146 147 148 149 150 151 152 153 154 155 156 157 158 159 160 161 162 163 164 165 166 167 168 169 170 171 172 173 174 175 176 177 178 179 180 181 182 183 184 185 186 187 188 189 190 191 192 193 194 195 196 197 198 199 200 201 202 203 204 205 206 207 208 209 210 211 212 213 214 215 216 217 218 219 220 221 222 223 224 225 226 227 228 229 230 231 232 233 234 235 236 237 238 239 240 241 242 243 244 245 246 247 248 249 250 251 252 253 254 255 256 257 258 259 260 261 262 263 264 265 266 267
        </DataArray>
        <DataArray type="Int32" Name="offsets" format="ascii">
 1 2 3 4 5 6 7 8 9 10 11 12 13 14 15 16 17 18 19 20 21 22 23 24 25 26 27 28 29 30 31 32 33 34 35 36 37 38 39 40 41 42 43 44 45 46 47 48 49 50 51 52 53 54 55 56 57 58 59 60 61 62 63 64 65 66 67 68 69 70 71 72 73 74 75 76 77 78 79 80 81 82 83 84 85 86 87 88 89 90 91 92 93 94 95 96 97 98 99 100 101 102 103 104 105 106 107 108 109 110 111 112 113 114 115 116 117 118 119 120 121 122 123 124 125 126 127 128 129 130 131 132 133 134 135 136 137 138 139 140 141 142 143 144 145 146 147 148 149 150 151 152 153 154 155 156 157 158 159 160 161 162 163 164 165 166 167 168 169 170 171 172 173 174 175 176 177 178 179 180 181 182 183 184 185 186 187 188 189 190 191 192 193 194 195 196 197 198 199 200 201 202 203 204 205 206 207 208 209 210 211 212 213 214 215 216 217 218 219 220 221 222 223 224 225 226 227 228 229 230 231 232 233 234 235 236 237 238 239 240 241 242 243 244 245 246 247 248 249 250 251 252 253 254 255 256 257 258 259 260 261 262 263 264 265 266 267 268
        </DataArray>
        <DataArray type="UInt8" Name="types" format="ascii">
 1 1 1 1 1 1 1 1 1 1 1 1 1 1 1 1 1 1 1 1 1 1 1 1 1 1 1 1 1 1 1 1 1 1 1 1 1 1 1 1 1 1 1 1 1 1 1 1 1 1 1 1 1 1 1 1 1 1 1 1 1 1 1 1 1 1 1 1 1 1 1 1 1 1 1 1 1 1 1 1 1 1 1 1 1 1 1 1 1 1 1 1 1 1 1 1 1 1 1 1 1 1 1 1 1 1 1 1 1 1 1 1 1 1 1 1 1 1 1 1 1 1 1 1 1 1 1 1 1 1 1 1 1 1 1 1 1 1 1 1 1 1 1 1 1 1 1 1 1 1 1 1 1 1 1 1 1 1 1 1 1 1 1 1 1 1 1 1 1 1 1 1 1 1 1 1 1 1 1 1 1 1 1 1 1 1 1 1 1 1 1 1 1 1 1 1 1 1 1 1 1 1 1 1 1 1 1 1 1 1 1 1 1 1 1 1 1 1 1 1 1 1 1 1 1 1 1 1 1 1 1 1 1 1 1 1 1 1 1 1 1 1 1 1 1 1 1 1 1 1 1 1 1 1 1 1 1 1 1 1 1 1 1 1 1 1 1 1
        </DataArray>
      </Cells>
      <PointData Scalars="overlap">
        <DataArray type="Float32" Name="overlap" format="ascii">
 0.0001311644 0.0000915061 0.0001088784 0.0000650602 0.0000328226 0.0000867569 0.0000510252 0.0001387576 0.0000524041 0.0002458136 0.0003253090 0.0000051352 0.0000620251 0.0000277680 0.0003212044 0.0002127547 0.0000866276 0.0001002197 0.0003390543 0.0001798930 0.0002913884 0.0001758504 0.0002917811 0.0002306287 0.0001371155 0.0004680839 0.0001284330 0.0000609137 0.0000821756 0.0001504679 0.0002627531 0.0000091284 0.0000289090 0.0000361515 0.0000302323 0.0001118906 0.0002528176 0.0001928972 0.0005218203 0.0000112441 0.0002176936 0.0000819404 0.0001141841 0.0001623143 0.0001932409 0.0003611778 0.0001405577 0.0000705438 0.0002131407 0.0000555612 0.0000193389 0.0000102658 0.0000795977 0.0003112033 0.0000848120 0.0000476027 0.0001213537 0.0000154262 0.0000398743 0.0002321796 0.0000376740 0.0000337596 0.0000246496 0.0001602394 0.0000515556 0.0000404999 0.0001537038 0.0000756857 0.0001086027 0.0000639748 0.0000391936 0.0000303618 0.0000402480 0.0000488944 0.0000120124 0.0000424581 0.0000015598 0.0000109249 0.0000143456 0.0000049387 0.0001138852 0.0000858349 0.0000363660 0.0000573555 0.0000132900 0.0000501174 0.0000371376 0.0000735026 0.0000129156 0.0000346677 0.0000878383 0.0001032478 0.0001163816 0.0001003170 0.0000492517 0.0001187821 0.0000397536 0.0000427279 0.0000085235 0.0000504519 0.0000203791 0.0000102784 0.0000917248 0.0000432677 0.0000156880 0.0000144549 0.0000822945 0.0000007562 0.0001876499 0.0000652764 0.0000412182 0.0000428747 0.0001831982 0.0000122830 0.0003171397 0.0002170427 0.0003424593 0.0002770501 0.0001880416 0.0002339193 0.0006422609 0.0005492852 0.0005593851 0.0005669538 0.0000241805 0.0002879551 0.0000329729 0.0000509724 0.0000594101 0.0002398169 0.0003519117 0.0000640183 0.0002729441 0.0003254348 0.0000128537 0.0000672657 0.0001953488 0.0000602152 0.0000014689 0.0000270401 0.0000295948 0.0001720355 0.0002829970 0.0001732400 0.0000216004 0.0000604226 0.0001268928 0.0003737969 0.0005441672 0.0000958421 0.0002618055 0.0003684272 0.0004680465 0.0002864659 0.0001145664 0.0006699328 0.0001852973 0.0003434765 0.0000152698 0.0000276457 0.0000965530 0.0000932168 0.0000011776 0.0000151899 0.0000868901 0.0000143862 0.0000668431 0.0000015693 0.0000043417 0.0000095207 0.0000336147 0.0000204414 0.0000321108 0.0001179247 0.0000836079 0.0000563523 0.0000209435 0.0000303702 0.0000840635 0.0000425894 0.0000118414 0.0002153796 0.0000389928 0.0001312938 0.0000490281 0.0000170432 0.0000201505 0.0001710076 0.0001350315 0.0001683072 0.0001325812 0.0000941387 0.0000604615 0.0000166222 0.0000314306 0.0000608504 0.0000671986 0.0001922772 0.0001038599 0.0000168052 0.0000232342 0.0000587136 0.0000262318 0.0000049444 0.0000069387 0.0000171845 0.0000021506 0.0001150256 0.0000301705 0.0000106098 0.0000355060 0.0002200144 0.0001766538 0.0000608688 0.0000288575 0.0000247565 0.0000186576 0.0000197315 0.0001248594 0.0000950388 0.0000546302 0.0000459640 0.0001331563 0.0000292973 0.0000803091 0.0001468076 0.0000102685 0.0000194217 0.0000606009 0.0000109635 0.0000158141 0.0000486233 0.0000701921 0.0000158941 0.0000270453 0.0000513599 0.0000252714 0.0000218977 0.0000549693 0.0000284013 0.0000507727 0.0000343176 0.0000382629 0.0000610392 0.0000233622 0.0000004364 0.0000336410 0.0000216702 0.0000231434 0.0000023251 0.0000224919 0.0000137767 0.0000581723 0.0000149921 0.0000583846 0.0000213206 0.0000161463 0.0000118495 0.0000163861 0.0000256847 0.0000195290 0.0000250294 0.0000823147 0.0000131808 0.0000191051 0.0000752884 0.0000088870 0.0000553842
        </DataArray>
        <DataArray type="Float32" Name="contact normal" NumberOfComponents="3" format="ascii">
 0.5941416948 -0.1173752354 -0.7957504009 -0.4615226486 0.7985257352 -0.3864627991 0.4274244389 0.8641914077 0.2654836339 -0.4335132310 0.7884908511 -0.4362894180 -0.5709282049 0.7704128423 -0.2837340961 -0.6318060441 0.0506672735 -0.7734687777 -0.5278773739 -0.0068439093 -0.8492930231 0.2529106084 -0.7118974820 -0.6551627273 -0.7293069470 0.6711777223 -0.1327849472 -0.6819267262 0.7154374516 -0.1520696975 -0.3265434545 -0.9293085661 -0.1724962647 -0.4262873624 0.3920366008 0.8152216805 0.5214092815 -0.5380481529 0.6622964188 0.5264972357 -0.5307672884 0.6641436187 0.5634373485 -0.4741264416 0.6765666794 -0.6923159627 0.0006323316 -0.7215942128 -0.1819082294 -0.1635626943 0.9696167496 -0.9124457449 0.3355063366 -0.2342610950 0.9232369065 -0.2137481095 0.3192888350 0.9506822795 -0.2019862668 0.2353821393 -0.9847935905 -0.1647206972 -0.0552148170 -0.9792096591 -0.1844484711 -0.0844227755 -0.9606373604 0.1769709199 0.2141428385 -0.9140465367 0.4056074758 0.0012264875 0.9255170320 0.0162445932 0.3783574193 0.8960885643 -0.1028319332 0.4317995813 -0.1038165694 -0.5680684834 0.8164069562 -0.1417171495 -0.6564278951 0.7409579395 0.1393236645 -0.9811773775 0.1337156322 0.1393581180 -0.9811711048 0.1337257571 0.3910270321 0.9201283885 -0.0214850845 -0.5564377569 -0.5318227051 0.6383898755 -0.3726705387 -0.7474086526 0.5499972505 0.1873523421 0.6061637798 -0.7729583249 0.2195329300 0.5708708818 -0.7911458329 -0.5376614645 -0.0809880874 -0.8392622232 -0.7568125203 0.6337229594 0.1600937845 -0.4700283597 0.6051715266 0.6425268590 -0.4078190710 0.6244197994 0.6661707885 -0.4439494123 0.6322179603 0.6349876928 0.8041678745 0.1736206943 0.5684803287 0.1244553799 -0.7391999947 0.6618868681 0.3170236286 -0.8119727825 -0.4900981732 0.3237375698 -0.8061036012 -0.4953695288 0.4195982380 -0.7481958155 -0.5139458535 0.4023467280 -0.7595877934 -0.5110220099 0.3903477416 -0.7672508991 -0.5088759166 0.0952294953 0.8409750255 -0.5326277778 0.6985212322 -0.4423375023 0.5624994419 -0.7605540294 0.2741994394 -0.5885339717 -0.7557173662 0.2534865713 -0.6038508265 -0.7545422299 0.3190286856 -0.5734864611 -0.7541838543 0.2851754275 -0.5915079793 0.3822849961 0.5039648413 0.7745176696 -0.1819773932 -0.3923690103 -0.9016267454 0.4483806751 -0.8938423473 0.0007926911 -0.8923071335 0.3511323330 -0.2837147584 -0.7710206883 0.6318623523 0.0792279367 -0.4691236653 -0.1543032194 -0.8695478728 0.4085133329 -0.7602618382 0.5050928571 0.7824390909 -0.4006672287 0.4767125348 -0.5805166766 0.8071989158 -0.1069125737 0.0523956948 -0.4435675108 0.8947080834 0.1324732846 0.5989603746 0.7897450845 -0.3411131901 -0.8030721686 0.4885866183 0.7249455788 -0.4127756245 0.5514255994 0.7235717769 -0.3047900321 0.6193116501 -0.3229167907 0.6261735079 -0.7096699826 0.8675381615 0.4570396179 -0.1961946125 0.0331521674 0.9208099065 0.3886001157 -0.1484331518 0.6600702543 0.7363931415 -0.2956205481 0.6273985043 -0.7204023933 -0.2459479999 0.6299458828 -0.7366666587 -0.2956360355 0.6273974337 -0.7203969702 -0.2955413080 0.6274039810 -0.7204301353 -0.2956402198 0.6273971443 -0.7203955051 -0.2957401917 0.6273902271 -0.7203604944 -0.2956402115 0.6273971449 -0.7203955080 -0.2957395033 0.6273902750 -0.7203607353 0.6767216664 -0.5895343936 0.4410181233 0.6938361353 -0.5331968272 0.4840377679 0.6955863527 -0.5264636164 0.4888718508 -0.3142246675 -0.9106017084 -0.2684536961 0.2310072405 -0.5368628266 -0.8114271133 -0.2650464537 -0.2505572158 -0.9311130216 0.5331512880 0.0311292602 0.8454470257 0.5334652832 0.0307331345 0.8452634300 0.5335986506 0.0305651695 0.8451853350 0.5334204561 0.0307896947 0.8452896614 0.5340443628 0.0300020529 0.8449239584 0.5338589722 0.0302364702 0.8450327530 0.5339484094 0.0301334855 0.8449799223 0.5339431078 0.0303681776 0.8449748703 0.5335416363 0.0309359669 0.8452078374 -0.5551898895 -0.2152215452 -0.8033952160 0.5348389561 0.0314668603 0.8443678865 -0.5035000865 -0.1068727083 -0.8573598353 -0.2299422000 -0.2799309107 -0.9320757855 0.8763373701 0.4811699451 0.0225454576 0.8957261768 0.4289086206 -0.1170982977 -0.2513118329 0.4388661363 -0.8626928057 -0.5332887750 -0.0251942930 -0.8455579992 -0.5339336787 -0.0215680235 -0.8452512331 -0.5537173289 0.0062162629 -0.8326814984 -0.5342490224 -0.0206122400 -0.8450758058 0.8229794978 0.1183523353 0.5556054993 -0.6058045973 0.4822284245 -0.6328163530 0.6940338222 -0.5883671383 0.4148989807 0.3698913638 0.1909185518 -0.9092472082 0.7046688659 0.7042646090 -0.0863316277 -0.9533059345 -0.2600803089 -0.1535123060 -0.7867496474 0.2906087576 0.5445838248 -0.7888231117 0.2888179863 0.5425331964 -0.7842046565 0.2935293963 0.5466841412 0.5759227507 -0.6926931455 0.4341534192 0.1930681942 0.9231732887 -0.3323789276 -0.8040602824 -0.4430137083 -0.3965172335 -0.3714590268 0.6107359593 -0.6992994919 -0.3346209937 0.5710564305 -0.7496154639 0.7421876915 -0.1895833015 0.6428184832 0.7421462856 -0.1895514165 0.6428756888 0.7130029613 -0.1676617174 0.6808203329 0.7691564251 -0.2108526516 0.6032740282 0.7421563733 -0.1895591757 0.6428617554 0.7692129261 -0.2108983986 0.6031859911 0.7422044349 -0.1895961477 0.6427953621 -0.4117689491 -0.5048388950 -0.7586725398 -0.4118992398 -0.5046052515 -0.7587572447 -0.4121073517 -0.5045091381 -0.7587081522 -0.7434756532 0.4061446111 -0.5313101805 -0.7434807379 0.4061541525 -0.5312957714 -0.4122302643 -0.5043111453 -0.7587730082 -0.7434852410 0.4061626024 -0.5312830101 0.2459445955 -0.9171953292 0.3134708664 -0.7434887721 0.4061692283 -0.5312730031 -0.4125523956 -0.5040370986 -0.7587800235 0.3052598275 -0.9341497195 0.1848803379 -0.4135208669 -0.5041501647 -0.7581774885 0.0931571497 -0.8755551161 0.4740516683 -0.7109522717 0.4298632762 0.5565648490 0.5542938201 0.0640221959 0.8298551196 -0.7014264371 0.4387850913 0.5616659122 0.6483833186 0.2317286587 0.7251902516 -0.8900152341 0.4376529934 0.1277996102 -0.3553383320 -0.4752848687 -0.8048844410 -0.3061148834 -0.4995485202 -0.8103980220 -0.3711355495 -0.4159202484 -0.8302221094 -0.0505389630 -0.7256358060 -0.6862204385 -0.3327296246 -0.4459927686 -0.8308919589 -0.8919299082 0.3350140228 -0.3036883984 -0.0844251057 -0.7019189711 -0.7072355757 -0.9057921161 0.3594280843 -0.2243927240 -0.3208332687 -0.4521227140 -0.8322566102 -0.8918240328 0.3348548956 -0.3041744456 -0.2890540214 -0.4877285147 -0.8237527959 -0.9052901202 0.3583502697 -0.2281115569 -0.9145435943 0.3911181661 -0.1031338660 -0.9048479315 0.3574201544 -0.2313029488 -0.9082816235 0.3651967464 -0.2040975965 -0.4562067451 0.3571079124 0.8150762814 -0.8788905267 0.4581823562 -0.1327417440 -0.0236782745 -0.4495627605 -0.8929348597 -0.4534959399 -0.0165087666 -0.8911054332 -0.5079142548 0.0313579745 -0.8608366786 0.6898737549 0.2848387948 -0.6655381756 0.6982462933 0.0600898217 -0.7133311484 -0.8478209234 0.5225128741 0.0904432319 -0.0011743814 -0.3355944043 0.9420058475 -0.2935416584 0.5513160304 0.7809506575 -0.2758452500 0.4962181174 0.8232113811 -0.3916991301 0.3862353943 -0.8351011984 0.9640520403 0.2509767745 -0.0872600845 -0.0534541845 0.7754535633 0.6291378397 0.5911013865 0.7619749300 0.2645625766 0.5453423554 0.8085088482 0.2211677142 0.0610055059 0.9191435894 0.3891701303 -0.3689643402 0.6502521373 -0.6641065228 -0.3044604880 0.6785672430 -0.6684686290 -0.3290855268 0.6693809751 -0.6660569242 -0.7996168973 0.5030151874 -0.3280069187 -0.7830517449 0.5414089512 -0.3061148680 0.4342481042 -0.6246504608 0.6490303427 0.4362520857 -0.6152325720 0.6566376474 -0.7228158258 0.6880415945 -0.0643120998 -0.6045567382 -0.7557490790 0.2517031584 0.1591766499 -0.6212002246 -0.7673154990 -0.6859745340 0.4883930315 -0.5393618317 -0.7309051637 0.6809633927 -0.0454587672 -0.7389236436 0.4283376202 -0.5201141529 -0.8261981111 0.3273811844 -0.4584956285 -0.6612553475 0.7017596348 0.2650939086 -0.7060274489 -0.5467784096 0.4500651199 -0.8044950136 0.4277156424 -0.4121251051 -0.2784717037 0.5485805691 -0.7883608751 -0.3168700253 0.5871789671 -0.7448585421 -0.4152518731 0.2914315109 0.8617618908 -0.4147417855 0.2858619417 0.8638704774 0.6716684271 0.7394467214 -0.0456077877 -0.6279494881 0.1513092513 0.7634035308 -0.6118536808 -0.7909680308 0.0021558391 -0.5073878317 -0.2464285911 -0.8257303057 -0.2110713536 -0.2467507525 -0.9458133800 0.1787014954 -0.5558578603 -0.8118422351 0.3670522810 -0.6749558012 0.6400838144 -0.1433574044 -0.0194662456 -0.9894795197 0.8969861699 0.3765280352 0.2316083972 -0.3536055724 -0.8759265358 -0.3282008579 -0.7045536262 0.4764170134 -0.5259572389 -0.7030154511 0.4758879843 -0.5284883176 -0.7109520455 0.4680609485 -0.5248486806 0.8768413098 -0.2753394628 0.3941287831 0.5161745244 0.1216652716 0.8477979842 -0.7605857869 -0.1391298196 -0.6341546768 -0.7393146468 -0.5398507947 -0.4024611441 0.7661159735 0.0801933499 0.6376796546 0.0351455134 -0.1951946514 -0.9801346035 -0.3896343079 0.3335931990 -0.8584291955 -0.3896339983 0.3335956010 -0.8584284026 -0.6460649884 0.1920500433 0.7387264796 -0.2723353649 0.8967324466 -0.3488615315 -0.9162743855 -0.0802772428 -0.3924242790 -0.8704224395 0.1500971581 -0.4688663135 0.3784057620 -0.3906609563 0.8391621396 -0.4369093415 0.4695353006 -0.7672332297 -0.4371732192 0.2597717516 -0.8610448383 0.7615581020 -0.4603458455 0.4561918016 -0.8736361805 0.1106084975 -0.4738413071 0.7029391536 0.1348702326 0.6983455926 -0.8443660232 0.0990224428 -0.5265363944 0.1814809202 -0.6252746727 -0.7590100522 0.1852573434 -0.6225541219 -0.7603328758 -0.4164204916 0.9091109243 0.0105499525 -0.5220986458 0.4535229409 -0.7223087610 -0.5258698671 0.4388807033 -0.7285908393 -0.2191081830 0.8371908633 -0.5011018485 -0.2256452855 0.8620723513 -0.4537790941 0.3126682103 0.8078168499 0.4996704186 -0.4220513807 -0.8815343706 0.2115887177 0.9939585748 -0.0971788819 -0.0510158459 0.8364611236 0.2281511633 -0.4982768661 -0.7261807713 0.3686390957 -0.5803160386 -0.3389129550 0.5860269080 -0.7360098314 0.4171883928 -0.7171449906 0.5582624001 0.4173505202 -0.7169383727 0.5584065840 0.4173236205 -0.7169201725 0.5584500533 0.4173645148 -0.7169227439 0.5584161899 -0.4065232200 0.8134466063 -0.4159849641 -0.3702079878 0.8997885919 -0.2309253900 -0.3116881793 0.9269709898 -0.2087468874 0.8676907987 -0.4077755908 0.2843092425 0.8671010529 -0.3073841422 -0.3919831032 -0.0014964812 -0.2310008973 0.9729523863 0.6003268684 -0.1849067146 -0.7780855724 0.5201121949 -0.3618328259 -0.7736667957 -0.4543825715 -0.8654469090 0.2110405801 -0.5493752712 0.8246589109 -0.1346272336 0.3185739026 -0.0274847101 0.9474994772 0.3284035723 -0.0665986703 0.9421866645 0.1719938734 -0.1846156599 0.9676441317 0.6425528652 0.3164018373 0.6978650964 -0.4990277493 -0.1018877071 -0.8605755055 -0.9077384438 0.3397025335 0.2461972915 -0.8939434340 0.4268268185 -0.1366894433 -0.4561002431 0.5527821164 -0.6974270571 -0.4973743012 0.5351070396 -0.6828464400 -0.0609385274 0.2123957768 -0.9752817695 0.3946194892 -0.2916380237 0.8713338751 0.3886178503 -0.3413653631 0.8558305062
        </DataArray>
        <DataArray type="Float32" Name="contact force" NumberOfComponents="3" format="ascii">