<?xml version="1.0"?>
<VTKFile type="UnstructuredGrid" version="0.1" byte_order="LittleEndian">
  <UnstructuredGrid>
    <FieldData>
      <DataArray type="Float32" Name="TIME"  NumberOfTuples="1" format="ascii"> 2.1000000000 </DataArray>
      <DataArray type="Int32"   Name="STEP"  NumberOfTuples="1" format="ascii"> 210000 </DataArray>
    </FieldData>
    <Piece NumberOfPoints="261" NumberOfCells="261">
      <Points>
        <DataArray type="Float32" NumberOfComponents="3" format="ascii">
 6.7808123822 0.1576764911 -7.0884614606 6.9047739456 0.0999480981 -7.0708637154 6.8231624960 0.0969066966 -7.2023378538 6.9147617010 0.0991539185 -7.0888551664 6.9501781963 0.0839765854 -7.2413470817 6.9507572498 0.3163172535 -7.0672896104 6.9619032629 0.3121565704 -7.0759909447 6.9605217537 0.4023292917 -7.0822280635 7.0474429518 0.1645675826 -7.2926631765 7.0548213428 0.1717236723 -7.2934751206 7.0136928538 0.4261488195 -7.1792357751 7.0192880953 0.4281705819 -7.1935440620 6.9817000773 0.3704878462 -7.3547846813 6.9909386139 0.3691407907 -7.3652850205 7.0091327685 0.3865698705 -7.3752576073 7.1380445202 0.3789203062 -7.2474591914 7.1485206757 0.3721992768 -7.2573895773 7.1595862740 0.3679087279 -7.3544777321 7.4422934744 0.2536398001 -6.9321876111 7.3825950961 0.3131634169 -7.0152511340 7.3823577913 0.3092300746 -7.0240688369 7.4602518153 0.5154319119 -7.0872145295 7.4599377072 0.5079224074 -7.1081491791 7.4583650005 0.2892342804 -7.1508880714 7.4582850672 0.3032039512 -7.1582007999 7.4072884452 0.4707904154 -7.2107009418 7.4018123367 0.4513475253 -7.1965212457 6.6152227896 0.7200670283 -6.8845207703 6.6253759736 0.7219956954 -6.8833856844 6.6287892807 0.7132307347 -6.8898780104 6.5644659528 0.8014937171 -6.7223919477 6.5629851081 0.8021809373 -6.7106435078 6.5983482266 0.6346301128 -6.8006028133 6.5914303449 0.6947765399 -6.6685695166 6.5989258019 0.6894515228 -6.6721926172 6.9965558687 0.7078834236 -7.0018061155 7.0827507225 0.7174852531 -7.0775802170 6.9863322323 0.7038775562 -7.1205397159 6.9898888547 0.7081249515 -7.1240450268 6.9844456035 0.7098821998 -7.1267805458 6.8528576424 0.7169284234 -7.0592789585 7.0816315397 0.8259638695 -7.1259845848 6.9261664676 0.8020984249 -7.0322792457 6.9205685452 0.8032065886 -7.0371538157 6.9286684118 0.8077045884 -7.0375969711 6.9235530617 0.8090906862 -7.0428260425 6.9188973387 0.8110790792 -7.0487584913 6.8870982044 0.3667118423 -6.6171552663 6.7148530575 0.5546538410 -6.6951436799 6.9576613561 0.4449792601 -6.6721218185 6.9646107558 0.4454770144 -6.6823823579 6.9502209185 0.3613714883 -6.7276064130 6.9687592953 0.4615078578 -6.6810679818 6.9745935658 0.4609128383 -6.6900984592 6.8576270526 0.3734938900 -6.8299760170 6.8260737190 0.6488038760 -6.5573344417 6.8099431669 0.6937437982 -6.7684822494 7.0344643613 0.4499256694 -6.8176202858 7.0418514423 0.4614786544 -6.8183317758 7.0208528472 0.7426701482 -6.7101463201 7.0309335204 0.7616358152 -6.7213862373 6.9356644919 0.8379426465 -6.8659153760 7.1555256037 0.7048476353 -6.8538243637 7.3350948186 0.2889718780 -7.0238398067 7.3174405610 0.1409125122 -7.0248524757 7.1242160117 0.2090153589 -7.1648778456 7.2033436874 0.3461957861 -7.1424077244 7.2138962845 0.3541465501 -7.1409129165 7.0520963835 0.2652060524 -7.0273113162 7.1331961805 0.1659509336 -6.9254999019 7.0228193034 0.1999119508 -6.9471423373 6.6187089453 0.3614678204 -6.9051280330 6.6143700165 0.3555344828 -6.8947688918 6.6143270516 0.3512558472 -6.7969232881 6.6205398386 0.3648215031 -6.7870572534 6.6178594003 0.3760172931 -6.7749807237 6.6236877083 0.3851025754 -6.7693427644 6.6208997175 0.3929853049 -6.7602877848 6.6264964045 0.4000648135 -6.7565283960 6.6237094497 0.4067024184 -6.7486176819 6.6208106812 0.4132946194 -6.7407485192 6.6263997241 0.4190799997 -6.7381924483 6.6235776586 0.4258249234 -6.7301804958 6.5775360435 0.5168032980 -6.7974160288 6.5817812472 0.5221230680 -6.7990411060 6.6428807875 0.5556558745 -6.6718071747 6.6376140866 0.5646601027 -6.6794128099 6.7161342889 0.2926017408 -6.7374137327 6.7721732749 0.2174110158 -6.8419954143 6.7685112769 0.2085064162 -6.8391696866 6.7774840960 0.2184504747 -6.8458748233 6.7742277281 0.2082283966 -6.8433080796 6.7823065152 0.2212702088 -6.8494306196 6.7868527239 0.2260330896 -6.8528217509 6.7913337391 0.2331762292 -6.8562049731 6.7960026585 0.2435501844 -6.8597644241 6.6667435650 0.2124865373 -6.6915155773 6.8024470371 0.2423252819 -6.8644352380 6.8612517397 0.2356053175 -6.8030517635 6.8671348187 0.2439103792 -6.8079347908 6.8748774637 0.2413108110 -6.8124776365 6.6994989244 0.1393870643 -6.6940590102 6.6556952824 0.0643048788 -6.7226507266 6.6688202855 0.0420807484 -6.7344645313 6.7488224723 -0.0384829693 -6.7325014905 6.8701170265 0.0425194075 -6.7975276747 6.8812728712 0.0627189438 -6.8056620601 6.8863956647 0.0731139144 -6.8093906667 6.8926937138 0.0784248019 -6.8140706040 7.3481400166 0.1631011185 -7.1880928698 7.3929174929 0.0962403236 -7.0098106752 6.9367441048 0.1613796058 -6.7507980329 7.0171519643 0.1680107893 -6.7030850614 6.9759928523 0.2816325525 -6.7372501688 7.2402998748 0.6686239762 -6.8777867518 7.2399607939 0.6793654586 -6.8748864531 7.2480858587 0.6824215032 -6.8725236106 7.1793677498 0.6021000690 -7.0305588889 7.2750091681 0.6617088165 -7.0185051031 7.2717800814 0.6647110966 -7.0239511822 7.2749896244 0.6710048096 -7.0218985068 7.1964145509 0.7340772406 -7.0260807162 6.9542224109 0.4686621856 -7.0503929501 7.0276553972 0.4758435351 -7.0567266985 7.0319293312 0.4948607546 -7.0509169450 7.0402019541 0.4884363297 -7.0618417022 6.9096895528 0.5177510118 -7.1768307236 6.9136611505 0.5333725115 -7.1790696754 6.9222197372 0.5320140260 -7.1900744361 7.1064066773 0.6294946448 -7.1348826532 7.1143394730 0.6328450872 -7.1416201336 7.1606695016 0.4564339212 -7.2342550168 7.1676550050 0.4672673053 -7.2368412803 7.1225526874 0.6363987714 -7.1486461971 7.1744044962 0.4778167938 -7.2394978803 7.0203913845 0.7352000974 -7.2294916943 7.1314128273 0.6404106679 -7.1563267101 7.0207110517 0.7219317059 -7.2394797968 7.1414634483 0.6452604712 -7.1652012616 7.0850313438 0.7500974958 -7.2292904700 7.0857263104 0.6249030853 -7.3522589172 7.1876652445 0.5575070497 -7.3314091667 7.0977179889 0.6387284370 -7.3644705805 7.2479317544 0.6684543888 -7.2668494192 7.0201955981 0.0864981585 -6.8444979611 7.0234710847 -0.0115321293 -6.7845786026 6.8528457003 0.0748003413 -6.7004336783 6.9362563386 0.0213389335 -6.6973272965 6.9291482784 0.0240209210 -6.6922486034 6.8612083497 -0.0280141266 -6.6692625122 6.8515009997 -0.0200603228 -6.6775961419 6.7366216571 0.0505843634 -6.9689960989 6.7426339834 0.0501890546 -6.9698163727 6.7507993122 0.0148063048 -7.0091352481 6.7454774901 0.1105921819 -7.0310508715 6.7488833923 0.1084364901 -7.0322486494 6.7523197942 0.1115322997 -7.0312478880 6.7558337170 0.1094213904 -7.0324065311 6.7597703155 0.1126807417 -7.0314226107 6.7801330413 0.1355227248 -6.9650931151 6.7886681156 0.1413414188 -6.9672212871 6.5876313074 0.8241440509 -6.6320833976 6.9888872014 0.3352615962 -7.0075479182 7.0521042140 0.5675532472 -7.3925932808 7.0445371294 0.5714102465 -7.3874431924 7.1667789097 0.0541905432 -7.2326857227 7.1462255441 0.0622854967 -7.1873033524 7.1561335398 0.0672816552 -7.1873998115 7.1498268374 0.0684891430 -7.1826772212 7.2361601489 0.1061271446 -7.2489829700 7.2444127348 0.1197278620 -7.2482089247 7.1033448363 0.1735786660 -7.2670911607 7.1080565416 0.1776159043 -7.2676750897 7.0766738151 0.0903288283 -6.7395391563 7.1321838204 0.1931462627 -6.7485899681 7.3373964830 0.5925641436 -7.2394919951 7.3093189146 0.5835448484 -7.1471721522 7.3068863837 0.4597156271 -7.2147215104 7.3061585119 0.4550718007 -7.2192969085 7.3026505539 0.4523267518 -7.2144531124 7.2660195101 0.3836637803 -7.2804936932 7.2543912922 0.3695411262 -7.2792224156 6.6710184178 0.7571110655 -7.0109702563 7.2352095805 0.6273104488 -7.1166214351 7.1452955743 0.5698937593 -7.0491768649 7.1380528049 0.5734338564 -7.0425423985 6.6890884548 0.8032350386 -6.6505007208 6.6963611590 0.8024930738 -6.6473153083 6.6386073443 0.2020432873 -6.9312720757 6.7136876926 0.2087836959 -7.0335583316 6.7952196626 0.0654222703 -6.6518916892 6.8278761565 0.1067549592 -6.6737180786 6.7293325549 0.1764134056 -6.6885593597 6.9051247341 0.8069424115 -6.5850658555 7.1777666855 0.1120295354 -6.8725274298 7.1798069032 0.1109152629 -6.8779601064 7.1751718453 0.1065453792 -6.8737712687 7.0662946374 0.1114766399 -6.8785601925 6.8206386702 0.7714619970 -7.1066044825 6.7779769708 0.8796396405 -7.0990872922 7.1230237629 0.7271140143 -6.7470060133 7.1212795840 0.7257825893 -6.6698104477 7.2950784800 0.1406711467 -7.3589715415 6.7765750131 0.7353534632 -6.9176936956 6.8348970155 0.8603573730 -6.8858351389 6.8429236942 0.8621994260 -6.8983248986 6.8147049861 0.8380061893 -6.9136027173 6.5732959979 0.1264947286 -6.8485838360 6.6383457508 0.0580007659 -6.9295655133 7.1637042130 0.8779330391 -7.1374723321 7.2580656160 0.8684906540 -7.0921915672 7.1564023945 0.8802692993 -7.1281149174 7.2555406196 0.8469525887 -7.0911490791 7.3049459938 0.6413738072 -7.0717302798 7.3074639907 0.6462189985 -7.0746732657 7.3279233721 0.3578964903 -7.2058703964 7.1761242762 0.0292410734 -7.1195210567 7.1774768439 0.0241040625 -7.1264650127 7.2620200659 0.0219609500 -7.2886038298 7.2609859409 0.0145036673 -7.2824147358 7.2771072092 0.0074512993 -7.2424515353 7.2758686453 0.0100572151 -7.2327026076 6.7417949199 0.0880754878 -7.0985265393 6.8034625473 0.2623146385 -7.0500091069 7.1716452452 0.8397651392 -7.2517877569 7.1714952800 0.8483378384 -7.2509633063 7.0942877479 0.8715595962 -7.2210035155 7.0963114999 0.8771325134 -7.2154467136 7.0216281617 0.4163924210 -6.6040204773 6.8645967699 0.5241863486 -6.4769590111 7.0975493693 0.1053951748 -7.4681488366 7.1054354895 0.1160235212 -7.4603809641 7.1073530349 0.1209645633 -7.4550494835 7.1097628695 0.1249365912 -7.4516001449 7.1127843228 0.1283106864 -7.4496165425 7.1166336393 0.1313129262 -7.4489730049 7.1659015479 0.0115412716 -7.0515624777 7.1556722795 0.0092046860 -7.0443148772 7.1857843314 0.0183571444 -7.0627803320 7.0781057837 0.0213500485 -7.0139377804 7.1575153334 0.2841219405 -7.4296470189 7.5637576703 0.3145178618 -7.0385997834 6.6917442376 0.4255456023 -7.0077931842 6.6183093026 0.5517832956 -6.8675676072 6.6099234326 0.5390961554 -6.8695142486 6.7579558537 0.5878724888 -6.9065598459 6.7862881246 0.6662166599 -6.9575270486 6.8300025728 0.4393814027 -7.1227093504 6.8834090473 0.3647752775 -6.5793014314 6.8668033251 0.3667824372 -6.5720789855 6.7830902767 0.2404362198 -6.6253282954 6.8298634145 0.2190419530 -6.5739806008 6.8326791117 0.2147176435 -6.5788512438 6.9798876787 0.7290881786 -6.6280851087 7.0664669370 -0.0068524349 -6.7998467111 6.6776145550 0.3497706702 -6.7154157358 6.6714988591 0.3467644916 -6.7126620446 7.1149129527 -0.0287446989 -6.7993343177 7.1795166261 -0.0571998577 -6.9117730324 6.8931607328 0.8571340171 -6.9489189238 6.8866182627 0.8508507756 -6.9479560025
        </DataArray>
      </Points>
      <Cells>
        <DataArray type="Int32" Name="connectivity" format="ascii">
 0 1 2 3 4 5 6 7 8 9 10 11 12 13 14 15 16 17 18 19 20 21 22 23 24 25 26 27 28 29 30 31 32 33 34 35 36 37 38 39 40 41 42 43 44 45 46 47 48 49 50 51 52 53 54 55 56 57 58 59 60 61 62 63 64 65 66 67 68 69 70 71 72 73 74 75 76 77 78 79 80 81 82 83 84 85 86 87 88 89 90 91 92 93 94 95 96 97 98 99 100 101 102 103 104 105 106 107 108 109 110 111 112 113 114 115 116 117 118 119 120 121 122 123 124 125 126 127 128 129 130 131 132 133 134 135 136 137 138 139 140 141 142 143 144 145 146 147 148 149 150 151 152 153 154 155 156 157 158 159 160 161 162 163 164 165 166 167 168 169 170 171 172 173 174 175 176 177 178 179 180 181 182 183 184 185 186 187 188 189 190 191 192 193 194 195 196 197 198 199 200 201 202 203 204 205 206 207 208 209 210 211 212 213 214 215 216 217 218 219 220 221 222 223 224 225 226 227 228 229 230 231 232 233 234 235 236 237 238 239 240 241 242 243 244 245 246 247 248 249 250 251 252 253 254 255 256 257 258 259 260
        </DataArray>
        <DataArray type="Int32" Name="offsets" format="ascii">
 1 2 3 4 5 6 7 8 9 10 11 12 13 14 15 16 17 18 19 20 21 22 23 24 25 26 27 28 29 30 31 32 33 34 35 36 37 38 39 40 41 42 43 44 45 46 47 48 49 50 51 52 53 54 55 56 57 58 59 60 61 62 63 64 65 66 67 68 69 70 71 72 73 74 75 76 77 78 79 80 81 82 83 84 85 86 87 88 89 90 91 92 93 94 95 96 97 98 99 100 101 102 103 104 105 106 107 108 109 110 111 112 113 114 115 116 117 118 119 120 121 122 123 124 125 126 127 128 129 130 131 132 133 134 135 136 137 138 139 140 141 142 143 144 145 146 147 148 149 150 151 152 153 154 155 156 157 158 159 160 161 162 163 164 165 166 167 168 169 170 171 172 173 174 175 176 177 178 179 180 181 182 183 184 185 186 187 188 189 190 191 192 193 194 195 196 197 198 199 200 201 202 203 204 205 206 207 208 209 210 211 212 213 214 215 216 217 218 219 220 221 222 223 224 225 226 227 228 229 230 231 232 233 234 235 236 237 238 239 240 241 242 243 244 245 246 247 248 249 250 251 252 253 254 255 256 257 258 259 260 261
        </DataArray>
        <DataArray type="UInt8" Name="types" format="ascii">
 1 1 1 1 1 1 1 1 1 1 1 1 1 1 1 1 1 1 1 1 1 1 1 1 1 1 1 1 1 1 1 1 1 1 1 1 1 1 1 1 1 1 1 1 1 1 1 1 1 1 1 1 1 1 1 1 1 1 1 1 1 1 1 1 1 1 1 1 1 1 1 1 1 1 1 1 1 1 1 1 1 1 1 1 1 1 1 1 1 1 1 1 1 1 1 1 1 1 1 1 1 1 1 1 1 1 1 1 1 1 1 1 1 1 1 1 1 1 1 1 1 1 1 1 1 1 1 1 1 1 1 1 1 1 1 1 1 1 1 1 1 1 1 1 1 1 1 1 1 1 1 1 1 1 1 1 1 1 1 1 1 1 1 1 1 1 1 1 1 1 1 1 1 1 1 1 1 1 1 1 1 1 1 1 1 1 1 1 1 1 1 1 1 1 1 1 1 1 1 1 1 1 1 1 1 1 1 1 1 1 1 1 1 1 1 1 1 1 1 1 1 1 1 1 1 1 1 1 1 1 1 1 1 1 1 1 1 1 1 1 1 1 1 1 1 1 1 1 1 1 1 1 1 1 1 1 1 1 1 1 1
        </DataArray>
      </Cells>
      <PointData Scalars="overlap">
        <DataArray type="Float32" Name="overlap" format="ascii">
 0.0001332898 0.0000339379 0.0001142705 0.0001425468 0.0000489835 0.0000765501 0.0000410903 0.0001277769 0.0000549368 0.0002480746 0.0003318175 0.0000217186 0.0000637738 0.0000323379 0.0003329578 0.0000109422 0.0002325196 0.0000998083 0.0001343801 0.0003419429 0.0001955915 0.0002549491 0.0002046238 0.0002899714 0.0002288518 0.0001081669 0.0004359114 0.0002914630 0.0000138002 0.0001117868 0.0000767229 0.0001178494 0.0001851408 0.0001402117 0.0001453918 0.0000697404 0.0002578634 0.0002509118 0.0005659502 0.0000694007 0.0001799058 0.0000757894 0.0001295724 0.0001800203 0.0002087882 0.0003788389 0.0001602552 0.0000635667 0.0001939521 0.0000518710 0.0000293467 0.0000063708 0.0000171153 0.0000989447 0.0002938973 0.0001283083 0.0000416688 0.0001403810 0.0000376627 0.0000601026 0.0000435758 0.0002075474 0.0000263902 0.0001024077 0.0000193065 0.0001492815 0.0000536271 0.0000014347 0.0001470544 0.0000841400 0.0000921110 0.0000824857 0.0000507469 0.0000085682 0.0000035846 0.0000443852 0.0000516204 0.0000571931 0.0000187036 0.0000461915 0.0000023204 0.0000105709 0.0000109520 0.0001015385 0.0000728366 0.0000450466 0.0000498525 0.0000286176 0.0000369371 0.0000232062 0.0000607690 0.0000211374 0.0000756172 0.0000916249 0.0001054757 0.0000903052 0.0000543064 0.0001092390 0.0000039784 0.0000469831 0.0000027455 0.0000535288 0.0000171072 0.0000502724 0.0000331050 0.0000169270 0.0001003253 0.0000544735 0.0000251344 0.0000079071 0.0000810697 0.0000040460 0.0000015059 0.0000131735 0.0000838201 0.0000014051 0.0000532072 0.0000407629 0.0000467067 0.0001802077 0.0000192585 0.0002565676 0.0001289334 0.0001352537 0.0001235613 0.0000602618 0.0001195128 0.0000780535 0.0000444848 0.0000045801 0.0000221701 0.0000620548 0.0001936256 0.0000362903 0.0001336883 0.0000809996 0.0000499886 0.0001813439 0.0000552592 0.0000642636 0.0000404295 0.0001041258 0.0002688393 0.0001462583 0.0000221770 0.0000159965 0.0000918118 0.0000071119 0.0000326886 0.0000740725 0.0000018522 0.0000425596 0.0000065735 0.0000494037 0.0000056067 0.0000041072 0.0000248410 0.0000360125 0.0000045255 0.0000357017 0.0000171776 0.0000595427 0.0000147178 0.0001005562 0.0000597377 0.0000513591 0.0000172201 0.0000272741 0.0000834383 0.0000322228 0.0000004350 0.0002127471 0.0000359207 0.0001838701 0.0000126441 0.0000514340 0.0000194075 0.0001306022 0.0000918359 0.0001262007 0.0000072612 0.0000889817 0.0002062208 0.0000295164 0.0000233395 0.0000357750 0.0000403146 0.0000470285 0.0001827153 0.0001299868 0.0000126122 0.0000370407 0.0000029690 0.0000287925 0.0000638468 0.0000309612 0.0000056199 0.0000296391 0.0001470094 0.0000355360 0.0000320027 0.0000378333 0.0000120559 0.0000987114 0.0000476865 0.0000392565 0.0001342364 0.0000449523 0.0000981516 0.0001148261 0.0000162322 0.0000029039 0.0000609943 0.0000112113 0.0000127739 0.0000393250 0.0000814521 0.0000319188 0.0000284801 0.0000026881 0.0000259925 0.0000436211 0.0001127924 0.0000259340 0.0000384030 0.0000267571 0.0000068629 0.0000008812 0.0000560486 0.0000197826 0.0000432772 0.0000728631 0.0000358221 0.0000138931 0.0000110988 0.0000217054 0.0000274286 0.0000139430 0.0000234511 0.0000021545 0.0000448595 0.0000118779 0.0000225200 0.0000589717 0.0000160868 0.0000433564 0.0000013001 0.0000343446 0.0000018990 0.0000077132 0.0000261726 0.0000267753 0.0000038292 0.0000026753 0.0000479829 0.0000152054 0.0000207140 0.0000330818 0.0000827948 0.0000141668 0.0000612597
        </DataArray>
        <DataArray type="Float32" Name="contact normal" NumberOfComponents="3" format="ascii">
 0.5460985121 -0.0528348762 -0.8360531627 -0.5330176833 0.7845502307 -0.3168171157 0.5547414405 0.7450568023 0.3703407830 -0.5077617639 0.7786025554 -0.3687221880 -0.6446898877 0.7451367790 -0.1707223748 -0.6817068655 0.0563360075 -0.7294532225 -0.5804176741 0.0072861936 -0.8142863347 0.2391956889 -0.6684533449 -0.7042411151 -0.7650586690 0.6416377369 -0.0546465701 -0.7210012104 0.6889026999 -0.0746346081 -0.2966856370 -0.9345676114 -0.1963695813 -0.3097869248 -0.8304583583 -0.4630021343 0.5857722778 -0.5427579090 0.6019008978 0.5906395139 -0.5353429207 0.6037821808 0.6257691724 -0.4776573891 0.6166493019 -0.7634684861 0.1519766943 -0.6277092919 -0.7366867075 0.0013380612 -0.6762328775 -0.1200688971 -0.2153363294 0.9691303964 -0.9394627730 0.3028969514 -0.1601971750 0.9503341232 -0.1864842974 0.2491759642 0.9716138198 -0.1693649952 0.1651728902 -0.9785302276 -0.2060947736 -0.0018809453 -0.9740006832 -0.2242250318 -0.0323388966 -0.9518627653 0.1214235460 0.2814491047 -0.9291303329 0.3615312663 0.0775368812 0.9461267178 0.0424533088 0.3210014803 0.9254544277 -0.0802230049 0.3702679729 -0.0832747290 -0.6242234318 0.7767949708 0.0233966179 -0.5856297968 0.8102409144 -0.0128522204 -0.6717442384 0.7406716538 0.1865219985 -0.9792684386 0.0790118299 0.1865552449 -0.9792614778 0.0790196093 0.3476795047 0.9376134083 -0.0002421522 0.1109012756 0.6494561547 -0.7522683099 0.1434693989 0.6166149189 -0.7740817615 -0.5864866961 -0.0672652027 -0.8071609182 -0.7720511065 0.5895932514 0.2373117923 -0.4533072779 0.5523523785 0.6995851355 -0.3904668261 0.5732221960 0.7203832117 -0.4289036448 0.5808166716 0.6918769092 0.8306006773 0.1848437251 0.5252954523 0.1983776681 -0.7622359726 0.6161514609 0.3204780251 -0.7727858043 -0.5478101278 0.3265833223 -0.7663518004 -0.5532162792 0.4183970608 -0.7032240585 -0.5748215576 0.4018935462 -0.7155308463 -0.5713993223 0.3904128032 -0.7238345942 -0.5688948262 0.0252272672 0.8672594883 -0.4972168188 0.7518142069 -0.4342867789 0.4961556127 -0.8084888252 0.2652003926 -0.5253708892 -0.8037666255 0.2454676912 -0.5419454072 -0.6394250650 0.7075294449 -0.3008947837 -0.8034574493 0.3095402291 -0.5085675705 -0.8028073338 0.2766081206 -0.5281934611 0.4085867034 0.4852960889 0.7730100982 -0.2212044738 -0.3585557958 -0.9069213428 0.4861736452 -0.8709954800 -0.0707252474 -0.9231557565 0.3216438006 -0.2105438547 -0.7914062817 0.5906991397 0.1573233095 -0.6482336869 -0.1568328583 -0.7451151198 -0.5165708646 -0.1350739401 -0.8455232537 0.4729984352 -0.7627096758 0.4410741783 -0.8274384871 -0.0629299092 -0.5580191544 0.8282260386 -0.3849623238 0.4072414987 -0.6921077891 0.7212384224 -0.0283186576 0.1563823640 0.5675838099 0.8083273934 -0.2721072817 -0.8399023776 0.4695972992 0.7763048195 -0.4030267987 0.4846856990 0.7744973353 -0.2984086282 0.5577689200 -0.3951432009 0.6427024644 -0.6563500538 0.8321545031 0.5058739832 -0.2271792156 0.0177494661 0.9024939095 0.4303367283 -0.1297065579 0.6176076645 0.7757170757 -0.3683611632 0.6453287047 -0.6692241151 -0.3197773438 0.6509873170 -0.6884460498 -0.3684016819 0.6453402401 -0.6691906868 -0.3200308190 0.6509635868 -0.6883506981 -0.3684167045 0.6453381981 -0.6691843856 -0.3683246628 0.6453507078 -0.6692229872 -0.3684207503 0.6453376480 -0.6691826887 -0.3685178669 0.6453244405 -0.6691419493 -0.3684207247 0.6453376515 -0.6691826994 -0.3685171806 0.6453245341 -0.6691422369 0.7461778449 -0.5216980617 0.4135816198 0.7479363394 -0.5151179138 0.4186224636 -0.2905152810 -0.9109060359 -0.2930035244 0.2017350193 -0.4871328512 -0.8497085190 -0.3128661396 -0.2199605762 -0.9239762571 0.5843046721 0.0172069111 0.8113519411 0.5846233813 0.0168348160 0.8111301320 0.5847586631 0.0166771412 0.8110358679 0.5852110419 0.0161481872 0.8107202184 0.5850228319 0.0163684407 0.8108516266 0.5851131015 0.0162723337 0.8107884247 0.5850969808 0.0165062963 0.8107953288 0.5846866925 0.0170432898 0.8110801427 -0.5949740596 -0.2038378523 -0.7774676831 0.5859006741 0.0176695281 0.8101902171 -0.5482867862 -0.0977689914 -0.8305557323 -0.5520801777 -0.0911391247 -0.8287949912 -0.5355585322 -0.1173078455 -0.8363109039 -0.2766179151 -0.2478703121 -0.9284626204 0.8542139812 0.5198508011 -0.0085801479 0.8667978877 0.4750538057 -0.1516090483 -0.3246478414 0.4658312824 -0.8231676593 -0.5846233082 -0.0115483780 -0.8112226713 -0.5854077942 -0.0079744594 -0.8106997734 -0.6055539048 0.0182429674 -0.7955951624 -0.5857534116 -0.0070435540 -0.8104587153 0.6498918354 -0.7374311583 0.1839453426 -0.7033206287 0.4967051433 -0.5085509746 -0.0178314803 0.5594587860 0.8286663412 -0.8401753343 0.1700406958 -0.5149675421 -0.2889411173 -0.9568510321 0.0308080040 0.1730950880 0.2334642561 -0.9568346418 0.1913042946 0.2950577846 -0.9361322399 0.2229695879 0.3008129628 -0.9272519206 0.6683253609 0.7380877984 -0.0925614057 -0.7622667975 0.2285126073 0.6055834523 -0.7643965244 0.2267192534 0.6035696594 -0.7597284514 0.2314357374 0.6076595918 0.6327001494 -0.6833815135 0.3642529725 0.1209349229 0.9434886755 -0.3085512335 -0.8052998596 -0.4725764221 -0.3579995271 -0.4418698460 0.6249217648 -0.6436022274 -0.4062265236 0.5893364448 -0.6983284087 0.7482757075 -0.0950803537 0.6565387970 0.7482693848 -0.0950520721 0.6565500982 0.8071595397 -0.1281078765 0.5762654332 -0.4372007906 -0.4877711346 -0.7556022690 -0.4374057434 -0.4876953639 -0.7555325590 -0.7931942794 0.3946045477 -0.4638211790 -0.7931988597 0.3946131980 -0.4638059864 -0.4375351851 -0.4875099383 -0.7555772773 -0.7932029172 0.3946208607 -0.4637925275 0.8336174662 -0.0522766757 0.5498627731 -0.4378640346 -0.4872603130 -0.7555477977 0.2917419419 -0.9482873718 0.1250507890 -0.4387882274 -0.4874503888 -0.7548887401 0.1663598174 -0.8899376021 0.4246592463 0.6015544612 0.0523674843 0.7971134655 -0.6829287906 0.3789119106 0.6245270458 0.6816259182 0.2286408456 0.6950607681 -0.8981782399 0.3887154711 0.2053682837 -0.4183662289 0.2974818600 0.8581807743 -0.9049782299 0.4219282676 -0.0546894919 -0.0611736076 -0.4089802850 -0.9104904811 -0.5073308679 0.0035472215 -0.8617440500 -0.5615359365 0.0476898891 -0.8260769132 0.6327698905 0.3473077420 -0.6920835196 0.6479485070 0.1256733045 -0.7512449353 -0.1461818759 0.1262846683 -0.9811641258 -0.1067673644 0.0761503888 -0.9913636307 0.2009539762 0.9639393037 0.1744663813 0.0419147100 -0.3685944097 0.9286448828 0.0461565124 -0.3728831706 0.9267295816 0.0651134608 -0.3702797774 0.9266353780 0.0743026194 -0.3783312573 0.9226833587 0.0782718351 -0.3819873271 0.9208470024 -0.2297073563 -0.3459572732 -0.9096967053 0.4219080969 -0.5398610580 -0.7283842364 -0.4597702262 0.4054420274 -0.7900810727 -0.1226406107 0.6791308547 0.7236992213 0.5724487124 0.7762115112 0.2641934168 0.5215866917 0.8228332340 0.2255943087 0.0452568124 0.9021646611 0.4290113578 -0.4389351596 0.6619204201 -0.6076160656 -0.3761455606 0.6934090177 -0.6145717626 -0.4001383135 0.6829749060 -0.6110929617 -0.8403024027 0.4795380801 -0.2528539139 -0.8240662402 0.5176205509 -0.2301820954 0.5018447709 -0.6326351994 0.5898512782 0.5039151905 -0.6234798372 0.5977812086 -0.7721131483 0.6354397972 -0.0075861878 -0.3066232599 -0.7613832903 0.5712071969 -0.5533517379 -0.7939904537 0.2517558612 0.1368370429 -0.5771534867 -0.8050897320 -0.7615427963 0.6472809742 0.0328619819 -0.7887428611 0.4165181609 -0.4521032191 -0.8673807550 0.3088688338 -0.3901931181 -0.6797949388 0.6832322234 0.2665943923 -0.7155902293 0.6200021090 0.3217576859 -0.2906161102 -0.3408973202 0.8940532946 -0.8472440471 0.4080374649 -0.3401219661 -0.3519574788 0.5713603541 -0.7413995407 -0.3891261170 0.6060614378 -0.6937365484 -0.3716530934 0.2318679687 0.8989500672 -0.3707650203 0.2262391062 0.9007492251 0.6343709736 0.7713516518 -0.0508929964 -0.5833524826 0.0865955334 0.8075896821 -0.5423666894 -0.2313106837 -0.8076718033 -0.2602754329 -0.2130607374 -0.9417334130 0.1507928959 -0.5085395898 -0.8477316722 -0.2076899695 0.0205780144 -0.9779782318 -0.7825856545 0.4997805169 -0.3711861100 -0.6977219924 0.5754478660 -0.4266658819 -0.7763596552 0.4743502320 -0.4150392068 0.9114437468 -0.2518231580 0.3253542584 -0.7979288676 -0.1382358961 -0.5866859120 -0.5209549945 -0.8528766947 0.0347453218 0.8009691762 0.0858021383 0.5925254187 -0.0190209203 -0.1480463519 -0.9887974931 -0.7191615859 0.5991085005 -0.3519596824 -0.3330971669 0.8979187068 -0.2877295142 -0.9350955806 -0.1051730864 -0.3384300178 -0.9044389688 0.1303079474 -0.4062142175 0.4481043539 -0.4106262580 0.7940960674 -0.5054218804 0.4828800072 -0.7151053219 -0.4978644312 0.3089454250 -0.8103602486 0.8086681717 -0.4445252056 0.3852961583 -0.9063035145 0.0906633971 -0.4127881879 0.7394478860 0.1354991405 0.6594367345 -0.8799753600 0.0828887617 -0.4677315673 0.1593928094 -0.5799340884 -0.7989182595 0.1629482506 -0.5769866607 -0.8003338434 -0.4543376491 0.8871749110 0.0806100364 -0.5867217753 0.4613836246 -0.6654943346 -0.5902427442 0.4468932313 -0.6722350354 0.7125279096 0.4061869063 0.5721155261 0.7140759644 0.3787734432 0.5887496886 -0.2883344480 0.8480745851 -0.4445590447 -0.2929134221 0.8704084002 -0.3957157364 -0.5599592204 0.6942846679 0.4521221863 -0.3892063584 -0.9068009251 0.1619583058 0.9920028660 -0.0488178039 -0.1163921644 0.7922641297 0.2894616293 -0.5371494336 0.5124437568 -0.7063004245 0.4884067019 0.5500335146 -0.6787652606 0.4865602263 -0.7767403591 0.3514482874 -0.5226456886 -0.4103031287 0.6027569058 -0.6843503891 0.4821380620 -0.7219465094 0.4963226035 0.4823001929 -0.7217393614 0.4964663312 0.4822754331 -0.7217244673 0.4965120340 0.4822659102 -0.7217237878 0.4965222714 0.4822784393 -0.7217237320 0.4965101829 0.4823145461 -0.7217235505 0.4964753723 -0.4681010810 0.8113366425 -0.3501631486 -0.4238671399 0.8908104973 -0.1636866081 -0.3652220811 0.9197462916 -0.1438040004 0.9010844925 -0.3793869313 0.2100292689 0.8547978091 -0.2514248130 -0.4539892830 0.0712552207 -0.2752533418 0.9587274333 0.3681401809 -0.8639126865 0.3436970719 0.5568621450 -0.1205701780 -0.8218073884 0.4849634256 -0.3010798910 -0.8210733068 -0.4015766020 -0.8945513005 0.1962503592 0.3798216669 -0.0557545460 0.9233780006 0.2979535553 -0.2525586154 0.9205638624 -0.0023532063 -0.9943173662 -0.1064304360 -0.5925362969 -0.0389019831 -0.8046038606 0.6709418637 0.3129164678 0.6722501764 -0.1216541858 0.8314726514 -0.5420825482 -0.1032996443 0.8217372228 -0.5604258382 -0.5479942049 -0.0856607063 -0.8320844877 -0.9041986077 0.2856440457 0.3175411108 -0.5237241189 0.5620870769 -0.6401337089 -0.5631586011 0.5418458448 -0.6239034144 0.1302643370 -0.8270029812 0.5468978621 -0.1322064079 0.2545162824 -0.9579890019 0.4619762227 -0.3125344932 0.8300000965 0.4571859871 -0.3617234889 0.8124882096
        </DataArray>
        <DataArray type="Float32" Name="contact force" NumberOfComponents="3" format="ascii">