<?xml version="1.0"?>
<VTKFile type="UnstructuredGrid" version="0.1" byte_order="LittleEndian">
  <UnstructuredGrid>
    <FieldData>
      <DataArray type="Float32" Name="TIME"  NumberOfTuples="1" format="ascii"> 0.8000000000 </DataArray>
      <DataArray type="Int32"   Name="STEP"  NumberOfTuples="1" format="ascii"> 80000 </DataArray>
    </FieldData>
    <Piece NumberOfPoints="243" NumberOfCells="243">
      <Points>
        <DataArray type="Float32" NumberOfComponents="3" format="ascii">
 1.1191296327 0.2017513744 -0.9866070948 1.1684946135 0.1265587393 -1.0884103349 1.2458187265 0.1320989813 -0.9648312388 1.2973589758 0.0988937065 -1.1096806416 1.3000855882 0.3464351870 -0.9580469098 1.3117231876 0.3404840799 -0.9648623509 1.3199316394 0.4293738123 -0.9791102141 1.4074333590 0.1652933642 -1.1551058443 1.4155209111 0.1716694361 -1.1555993340 1.3862789578 0.4387647811 -1.0702945302 1.3936998168 0.4388694150 -1.0838986218 1.3699905544 0.3689362691 -1.2429054241 1.3802244846 0.3657665698 -1.2519962494 1.4010821607 0.3804911724 -1.2610806132 1.5126071269 0.3744430345 -1.1177558785 1.5234769513 0.3658912279 -1.1256447645 1.5454739636 0.3510515208 -1.2197982927 1.7636879388 0.2550894301 -0.7567127045 1.7203622766 0.3110840115 -0.8515234217 1.7207485798 0.3063443356 -0.8599330109 1.8254322154 0.4977463699 -0.9304684647 1.8268728423 0.4882670243 -0.9505363861 1.8088458736 0.2673953754 -0.9738899276 1.8110044420 0.2805246425 -0.9823415815 1.7832785512 0.4459194030 -1.0552832465 1.7742841773 0.4285193551 -1.0402672025 0.9223739091 0.8971797462 -0.6975868752 0.9509566614 0.7191419538 -0.7677708336 1.0439470460 0.8142659668 -0.8179606966 1.0499296251 0.8058444026 -0.8220930568 0.9346872645 0.7921422201 -0.6432127238 0.9419788635 0.7858442073 -0.6453963545 1.3758766449 0.7371410466 -0.9219196203 1.4709783332 0.7316776944 -0.9866606210 1.3794639564 0.7222772209 -1.0401886583 1.3838099693 0.7258332246 -1.0435706872 1.3789294670 0.7277736551 -1.0471215841 1.2415832065 0.7528400420 -0.9978096907 1.4862505576 0.8345122330 -1.0441339375 1.3191785280 0.8336086272 -0.9692617106 1.3143337975 0.8347096160 -0.9748869015 1.3228311592 0.8384217837 -0.9746886445 1.3185325432 0.8397213552 -0.9806270434 1.3148307170 0.8415084494 -0.9872546208 1.1141887937 0.4533568109 -0.6171841136 1.1888201386 0.4464513434 -0.5258940574 1.0462654168 0.6399892154 -0.6412004750 1.2727132634 0.5124925842 -0.5781030671 1.2808526960 0.5113656268 -0.5873926913 1.2863664235 0.5270287306 -0.5869727723 1.2931507748 0.5250366503 -0.5950936195 1.1854968830 0.4347221560 -0.7404779211 1.1491424600 0.7372816026 -0.4991812535 1.1625407019 0.7623883968 -0.7137636888 1.3663260632 0.4963423464 -0.7125414291 1.3688809031 0.7983718154 -0.6336540301 1.3124246287 0.8848216832 -0.8067097485 1.6720231876 0.2904459683 -0.8639854088 1.5606151703 0.1554124593 -0.7184016025 1.4724148050 0.2154684592 -1.0230699171 1.5613982923 0.3468074992 -1.0028388573 1.5724684100 0.3539155686 -1.0006977997 1.3968988378 0.2915921697 -0.9100699932 1.3904311146 0.2910027412 -0.9011970756 1.4487776831 0.1956757270 -0.7816673157 1.3456216862 0.2367577861 -0.8200110887 0.9571333081 0.4359995102 -0.8439837251 0.9510431097 0.4315109647 -0.8337800687 0.9423750539 0.4633648132 -0.7167673914 0.9483587222 0.4724266065 -0.7112559758 0.9453081673 0.4813775971 -0.7033518842 0.9510884347 0.4882846737 -0.6995497528 0.9480515737 0.4958883652 -0.6926674815 0.9506925758 0.5089583077 -0.6831108400 0.9476195918 0.5166814430 -0.6761423840 0.9216970838 0.6004758952 -0.7625803109 0.9189564844 0.6041972684 -0.7563741699 0.9238642276 0.6089430949 -0.7579083586 0.9725255347 0.6495044592 -0.6273944270 0.9690968111 0.6581251470 -0.6363675821 1.0268967270 0.3759603837 -0.6598450556 1.0872675483 0.2861979268 -0.7494551974 1.0824422985 0.2779678169 -0.7463456724 1.0930760138 0.2863842197 -0.7527051449 1.0760775343 0.2725133906 -0.7425165239 1.0885531219 0.2767873246 -0.7496841991 1.0985380396 0.2884096358 -0.7558538410 1.0941269890 0.2771194205 -0.7528150194 1.1038980547 0.2924015117 -0.7590457027 1.1094259423 0.2987593577 -0.7624472338 1.1154769148 0.3082861741 -0.7662829850 0.9648108522 0.3053643795 -0.6137366210 1.1222772166 0.3060512826 -0.7699719165 1.1796731591 0.3076388130 -0.7060786210 0.9903177210 0.2298210330 -0.6056573914 0.9552338456 0.1319966514 -0.6409336491 1.0261672690 0.0454130223 -0.6217578912 1.1616512510 0.1087741719 -0.6777266891 1.1756170145 0.1270263122 -0.6861206803 1.1821395282 0.1365177022 -0.6900664514 1.1894364708 0.1407737397 -0.6943574069 1.6416877922 0.0715833100 -1.0182991531 1.7086872859 0.0958416325 -0.8257652478 1.6955610889 0.0922695113 -0.8166807196 1.2347590593 0.2282409713 -0.6358548775 1.2390634765 0.2282082939 -0.6358822180 1.1896142355 0.3092264554 -0.6421298295 1.1937452745 0.3077758897 -0.6494463983 1.5980708553 0.6894377191 -0.7650697675 1.5500637280 0.6132162221 -0.9178851788 1.6649037144 0.8073722269 -0.7996940545 1.6486723333 0.6657918397 -0.8989258940 1.6424952523 0.6619704725 -0.9071830835 1.6464129269 0.6684919841 -0.9049841515 1.5786358961 0.7431573120 -0.9229160181 1.5847965814 0.7444830837 -0.9284445184 1.3165076593 0.4987985495 -0.9542360081 1.3905097187 0.4989429707 -0.9518268311 1.3959139207 0.5180146378 -0.9472177429 1.4047495260 0.5098499562 -0.9564023006 1.2979616452 0.5536686159 -1.0921548457 1.3113233522 0.5644371172 -1.1026859218 1.4925824466 0.6367270729 -1.0325628248 1.5015451441 0.6386979339 -1.0385070883 1.5410143941 0.4506309662 -1.1086750665 1.5492832146 0.4605106363 -1.1112957364 1.5108389154 0.6408175476 -1.0447187182 1.5572992881 0.4701222539 -1.1139908669 1.4213568966 0.7275519375 -1.1458138170 1.5208941014 0.6432708848 -1.0515350478 1.4292879138 0.7253612734 -1.1548702199 1.5323487404 0.6463341320 -1.0594535048 1.4943860192 0.7487716034 -1.1391453873 1.4973541342 0.6124050167 -1.2495371152 1.5890272103 0.5388698700 -1.2101287246 1.5119994021 0.6238696511 -1.2613007098 1.6518251578 0.6500525553 -1.1484528118 1.1743875231 0.7539648683 -1.0625682741 1.3198315360 0.1346950065 -0.7089335433 1.3063377433 0.0431906644 -0.6407190491 1.1362802430 0.1518762663 -0.5868168887 1.2130870479 0.0919650386 -0.5684677792 1.1307662501 0.0523207066 -0.5459380051 1.8454855379 0.3941906094 -0.9320125186 1.0511476545 0.1112955570 -0.8646836797 1.0579986687 0.0726113035 -0.8967856768 1.1021572498 0.1920307236 -0.8628642692 0.9353392126 0.9228182543 -0.6175504585 1.2253584034 0.4697920858 -0.9268921166 1.3339344643 0.3713565285 -0.9000399587 1.4633206077 0.5544664804 -1.2885854220 1.4556147652 0.5594532605 -1.2847883996 1.5074292638 0.0515110829 -1.0709946058 1.4825390081 0.0657972814 -1.0294805151 1.4928299609 0.0698844250 -1.0287549568 1.4861571748 0.0720949159 -1.0249969100 1.5830022546 0.0953761551 -1.0828359685 1.5923966604 0.1082232739 -1.0822152414 1.4605200285 0.1719312531 -1.1235255432 1.4656405089 0.1754682275 -1.1238575742 1.7295785108 0.5697976196 -1.1032911162 1.6900283498 0.5724394590 -1.0148556099 1.6834827770 0.4432009709 -1.0710394009 1.6828475148 0.4382080089 -1.0752476286 1.6785382155 0.4362699451 -1.0706666000 1.6304033145 0.3519652722 -1.1335265794 1.6174372411 0.6252263164 -0.9979176373 1.0399069812 0.8930598611 -0.6222355568 1.0466443689 0.8920124048 -0.6181003088 0.9643623954 0.2736396944 -0.8532742455 1.0514215896 0.2636667407 -0.9452765740 1.0726541663 0.1523915945 -0.5452952112 1.0759618599 0.1579562942 -0.5479653855 1.1115681483 0.1883402960 -0.5663804228 1.3567698305 0.0256652813 -0.8194257635 1.2459844521 0.8845663321 -0.5304531917 1.4639082263 0.2143552060 -0.6913556388 1.4741576000 0.2116066517 -0.6949690931 1.4742240560 0.1504641051 -0.7059409208 1.4763870717 0.1480681461 -0.7099758148 1.4715877669 0.1450140855 -0.7067241665 1.3675051040 0.1555597815 -0.7308458030 1.3718093009 0.1520613225 -0.7390631542 1.4726695500 0.7704961720 -0.6557968958 1.4617026992 0.7769569783 -0.5796245702 0.9718295254 0.0509350850 -0.8514053558 0.9676041223 0.0481564841 -0.8557500795 0.9625807767 0.0564635838 -0.8521130360 0.9572371007 0.0538242606 -0.8565727237 1.1513180207 0.7917083181 -0.8691748573 1.2174398525 0.9137354647 -0.8412371554 1.2270307507 0.9136330800 -0.8527228821 1.1985822608 0.8905829526 -0.8692791756 0.8826817923 0.2125753601 -0.7732118141 0.9498469863 0.1310353220 -0.8389467277 1.5738293515 0.8778109096 -1.0496582777 1.6607819875 0.8647513371 -0.9921497662 1.5657375734 0.8817038906 -1.0415409423 1.6560474300 0.8437240840 -0.9895439047 1.6824548828 0.6376294532 -0.9459517510 1.6857667184 0.6419238764 -0.9489628933 1.6932225699 0.3413116635 -1.0507245187 1.0935229778 0.1930459258 -0.5358846103 1.0979841390 0.1883411366 -0.5428857715 1.5008255047 0.0371879011 -0.9557973506 1.5024791321 0.0312889728 -0.9620349447 1.6049739325 0.0057935998 -1.1112989413 1.6130295184 -0.0053155626 -1.0625095119 1.6109111372 -0.0016495026 -1.0532677550 1.0808829602 0.1347393137 -0.9869349073 1.1573877988 0.3041446743 -0.9597360368 1.1471644681 0.3073231886 -0.9549235750 1.5922093902 0.8366048047 -1.1578474536 1.3248939698 0.4854788198 -0.5000514191 1.1668116865 0.6183005799 -0.4044996655 1.4719159993 0.0849476227 -1.3169741280 1.4798303450 0.0955707807 -1.3092278991 1.4815782065 0.1008307027 -1.3041491436 1.4839403239 0.1049012709 -1.3007826732 1.4870216813 0.1081812320 -1.2987343883 1.4910432306 0.1108884471 -1.2978724447 1.4809622874 0.0272755607 -0.8884184589 1.4697667060 0.0265636076 -0.8823534502 1.5026067290 0.0311978539 -0.8975700785 1.3907173589 0.0483104342 -0.8632712787 1.5440918251 0.2606987354 -1.2870069046 1.0939576650 0.4634693939 -0.9377500963 1.0933902960 0.4638986891 -0.9305753738 0.9709886927 0.6284135002 -0.8236555286 0.9616917862 0.6163664862 -0.8255306336 1.1171314658 0.6482477385 -0.8475711289 1.1002512290 0.5152416768 -0.9300976681 1.1863522976 0.4754573380 -1.0368935831 1.1636372193 0.4526544902 -0.4837621768 1.1129403952 0.3091735901 -0.4775623424 1.3173132309 0.7964966004 -0.5566135694 1.3511281854 0.0426582118 -0.6506756882 1.3298420379 0.0232995046 -0.5850502646 1.3296909832 0.0247028942 -0.5812881894 0.9918766360 0.4381017981 -0.6480407766 0.9852132748 0.4359251111 -0.6458313918 1.4711196090 -0.0282098545 -0.7425638910 1.2749481361 0.8937195893 -0.8951988566
        </DataArray>
      </Points>
      <Cells>
        <DataArray type="Int32" Name="connectivity" format="ascii">
 0 1 2 3 4 5 6 7 8 9 10 11 12 13 14 15 16 17 18 19 20 21 22 23 24 25 26 27 28 29 30 31 32 33 34 35 36 37 38 39 40 41 42 43 44 45 46 47 48 49 50 51 52 53 54 55 56 57 58 59 60 61 62 63 64 65 66 67 68 69 70 71 72 73 74 75 76 77 78 79 80 81 82 83 84 85 86 87 88 89 90 91 92 93 94 95 96 97 98 99 100 101 102 103 104 105 106 107 108 109 110 111 112 113 114 115 116 117 118 119 120 121 122 123 124 125 126 127 128 129 130 131 132 133 134 135 136 137 138 139 140 141 142 143 144 145 146 147 148 149 150 151 152 153 154 155 156 157 158 159 160 161 162 163 164 165 166 167 168 169 170 171 172 173 174 175 176 177 178 179 180 181 182 183 184 185 186 187 188 189 190 191 192 193 194 195 196 197 198 199 200 201 202 203 204 205 206 207 208 209 210 211 212 213 214 215 216 217 218 219 220 221 222 223 224 225 226 227 228 229 230 231 232 233 234 235 236 237 238 239 240 241 242
        </DataArray>
        <DataArray type="Int32" Name="offsets" format="ascii">
 1 2 3 4 5 6 7 8 9 10 11 12 13 14 15 16 17 18 19 20 21 22 23 24 25 26 27 28 29 30 31 32 33 34 35 36 37 38 39 40 41 42 43 44 45 46 47 48 49 50 51 52 53 54 55 56 57 58 59 60 61 62 63 64 65 66 67 68 69 70 71 72 73 74 75 76 77 78 79 80 81 82 83 84 85 86 87 88 89 90 91 92 93 94 95 96 97 98 99 100 101 102 103 104 105 106 107 108 109 110 111 112 113 114 115 116 117 118 119 120 121 122 123 124 125 126 127 128 129 130 131 132 133 134 135 136 137 138 139 140 141 142 143 144 145 146 147 148 149 150 151 152 153 154 155 156 157 158 159 160 161 162 163 164 165 166 167 168 169 170 171 172 173 174 175 176 177 178 179 180 181 182 183 184 185 186 187 188 189 190 191 192 193 194 195 196 197 198 199 200 201 202 203 204 205 206 207 208 209 210 211 212 213 214 215 216 217 218 219 220 221 222 223 224 225 226 227 228 229 230 231 232 233 234 235 236 237 238 239 240 241 242 243
        </DataArray>
        <DataArray type="UInt8" Name="types" format="ascii">
 1 1 1 1 1 1 1 1 1 1 1 1 1 1 1 1 1 1 1 1 1 1 1 1 1 1 1 1 1 1 1 1 1 1 1 1 1 1 1 1 1 1 1 1 1 1 1 1 1 1 1 1 1 1 1 1 1 1 1 1 1 1 1 1 1 1 1 1 1 1 1 1 1 1 1 1 1 1 1 1 1 1 1 1 1 1 1 1 1 1 1 1 1 1 1 1 1 1 1 1 1 1 1 1 1 1 1 1 1 1 1 1 1 1 1 1 1 1 1 1 1 1 1 1 1 1 1 1 1 1 1 1 1 1 1 1 1 1 1 1 1 1 1 1 1 1 1 1 1 1 1 1 1 1 1 1 1 1 1 1 1 1 1 1 1 1 1 1 1 1 1 1 1 1 1 1 1 1 1 1 1 1 1 1 1 1 1 1 1 1 1 1 1 1 1 1 1 1 1 1 1 1 1 1 1 1 1 1 1 1 1 1 1 1 1 1 1 1 1 1 1 1 1 1 1 1 1 1 1 1 1 1 1 1 1 1 1 1 1 1 1 1 1
        </DataArray>
      </Cells>
      <PointData Scalars="overlap">
        <DataArray type="Float32" Name="overlap" format="ascii">
 0.0001283872 0.0001123674 0.0000709611 0.0000430848 0.0000976016 0.0000588960 0.0001286000 0.0000505487 0.0002439461 0.0003447498 0.0000284115 0.0000851399 0.0000319162 0.0003009185 0.0000001230 0.0002172529 0.0000878243 0.0001549126 0.0003814915 0.0001693892 0.0003084648 0.0002074855 0.0002613704 0.0001939162 0.0001279395 0.0004561704 0.0000054874 0.0001480137 0.0000254825 0.0000847041 0.0000060022 0.0000161069 0.0000452769 0.0002342163 0.0002430537 0.0005609873 0.0000606741 0.0001583130 0.0000912022 0.0001201596 0.0001671690 0.0001997786 0.0003664452 0.0001445343 0.0000086129 0.0000732106 0.0001799918 0.0000623089 0.0000046568 0.0000037469 0.0000525239 0.0003592656 0.0001728793 0.0000331941 0.0000091999 0.0000152581 0.0001840730 0.0000574676 0.0000535091 0.0001778478 0.0000866107 0.0000986781 0.0000403139 0.0002133131 0.0001180479 0.0001346235 0.0000961318 0.0000500954 0.0000330736 0.0000435340 0.0000479997 0.0000112418 0.0000387809 0.0000047990 0.0000052390 0.0000037950 0.0001057915 0.0000779117 0.0000288964 0.0000521212 0.0000132013 0.0000538346 0.0000404096 0.0000782654 0.0000153193 0.0000391150 0.0000934951 0.0000036442 0.0001096761 0.0001234784 0.0001079944 0.0000599734 0.0001278575 0.0000300074 0.0000306540 0.0000353262 0.0000207080 0.0000038413 0.0000834768 0.0000346197 0.0000051655 0.0000203592 0.0000852623 0.0000109307 0.0000297025 0.0000331849 0.0000173967 0.0000248619 0.0002014741 0.0000231676 0.0002093767 0.0000538887 0.0000170966 0.0001958628 0.0003066415 0.0000231146 0.0001493474 0.0001609078 0.0001448190 0.0000856781 0.0001778574 0.0001113889 0.0000026794 0.0000141473 0.0000483407 0.0001751828 0.0000218735 0.0001106196 0.0003593291 0.0000285417 0.0002279157 0.0000255439 0.0000494176 0.0000907889 0.0001082674 0.0003200683 0.0001189089 0.0000077122 0.0000221754 0.0000716332 0.0000797894 0.0000057038 0.0000691699 0.0000120031 0.0000521577 0.0000190005 0.0000264855 0.0001137684 0.0000059075 0.0000172398 0.0001005626 0.0000712364 0.0000729820 0.0000119655 0.0000234125 0.0000807623 0.0000389082 0.0000108170 0.0001986286 0.0000217874 0.0000616614 0.0000214587 0.0001330652 0.0001013895 0.0001364929 0.0001147275 0.0000187381 0.0000553073 0.0000633072 0.0002135399 0.0001298177 0.0000078721 0.0000077903 0.0000389857 0.0000048574 0.0000475500 0.0000232833 0.0000372459 0.0001769103 0.0003194547 0.0000326621 0.0000179499 0.0001198026 0.0000188230 0.0000419925 0.0005671267 0.0002362591 0.0003902350 0.0000287512 0.0000757630 0.0000617722 0.0000528229 0.0001295564 0.0000064421 0.0001185281 0.0001591884 0.0000228598 0.0000399234 0.0000552882 0.0000139587 0.0000191882 0.0000411268 0.0000134032 0.0000330731 0.0000613959 0.0000149848 0.0000193081 0.0000194726 0.0000571862 0.0000290280 0.0000315233 0.0001149091 0.0000393045 0.0000564598 0.0000888543 0.0000339099 0.0000639262 0.0000267759 0.0000049248 0.0000023823 0.0000134347 0.0000331084 0.0000222917 0.0000202324 0.0000118963 0.0000436984 0.0001468556 0.0001620270 0.0000583004 0.0000192126 0.0000535391 0.0000302205 0.0000298922 0.0000484301 0.0000167770 0.0000342057 0.0000479091 0.0000187998 0.0000637815 0.0000076303 0.0000209903 0.0000758939 0.0000474434
        </DataArray>
        <DataArray type="Float32" Name="contact normal" NumberOfComponents="3" format="ascii">
 0.6336663147 -0.1824847964 -0.7517754324 0.4967218681 0.8166837197 0.2937602555 -0.4164966540 0.7478582560 -0.5169512222 -0.5344504873 0.7796162287 -0.3264371495 -0.5814748252 0.0425393493 -0.8124514948 -0.4761220318 -0.0231583865 -0.8790742289 0.2556673398 -0.7532524734 -0.6060073620 -0.6867921454 0.6967196430 -0.2071190192 -0.6362440524 0.7378126535 -0.2254462111 -0.3614030875 -0.9202929170 -0.1498290866 -0.3327161774 -0.8422807144 -0.4241027510 0.4553681824 -0.5296031224 0.7156537928 0.4377432080 -0.5538085386 0.7082915970 0.4995392255 -0.4670990117 0.7295745852 -0.6652040575 0.1541463630 -0.7305768000 -0.6477080400 -0.0024893569 -0.7618845700 -0.2535932862 -0.1067421636 0.9614034303 -0.8801981774 0.3637416217 -0.3048658742 0.8964644408 -0.2493897936 0.3662734460 0.9276452240 -0.2407848985 0.2854767433 -0.9869830139 -0.1164620873 -0.1109103805 -0.9806226169 -0.1380768518 -0.1389750562 -0.9621027906 0.2303308981 0.1459653988 -0.8923609973 0.4447825068 -0.0765530672 0.9010629866 -0.0079670700 0.4336150597 0.8627751309 -0.1229629869 0.4904071546 0.1377273471 -0.9780566054 0.1563216381 0.4349629467 0.8996285391 -0.0384151874 -0.6195717271 -0.4728027511 0.6265687779 -0.4405760061 -0.6998301317 0.5622548974 0.2614522046 0.5598703599 -0.7862492765 0.2928709469 0.5222356998 -0.8009347554 -0.4907392656 -0.0955714760 -0.8660491130 -0.7328706976 0.6750825647 0.0846408374 -0.4766361833 0.6560892499 0.5851195133 -0.4149122721 0.6734398384 0.6118223521 -0.4487342958 0.6814496051 0.5781556603 0.7773484075 0.1635695213 0.6074326835 0.0483355864 -0.7115740033 0.7009465806 0.3054869076 -0.8481330971 -0.4328371506 0.3127437876 -0.8428095100 -0.4380222063 0.4122329389 -0.7903299930 -0.4532576598 0.3943192916 -0.8007549976 -0.4508921490 0.3818693896 -0.8077392452 -0.4491470595 0.5247957818 0.8162786603 -0.2414094782 0.1659584064 0.8098014219 -0.5627428049 0.6419776173 -0.4464296027 0.6233501013 -0.7092527976 0.2801194739 -0.6469107739 -0.7045070266 0.2584963618 -0.6609458982 -0.7019830476 0.3253075809 -0.6335572418 -0.7021812518 0.2906400958 -0.6499767875 0.3598590668 0.5224762082 0.7729942198 -0.1524073909 -0.4242889151 -0.8926090430 0.4049666160 -0.9116603106 0.0698392299 -0.8555067693 0.3784402861 -0.3533993740 -0.5676402730 -0.1718088473 -0.8051498248 0.3403771027 -0.7533445439 0.5626859036 0.7325796297 -0.4130128833 0.5410614053 0.1923515204 0.7610338987 -0.6195387782 0.1142847256 0.6295946521 0.7684722347 -0.4072288560 -0.7624386909 0.5028438143 0.6702288070 -0.4185695885 0.6128563011 0.6465426536 -0.7593585820 -0.0731924934 0.6696475879 -0.3064937316 0.6764862900 -0.2493231861 0.6034518541 -0.7574191763 0.8988625755 0.4069246682 -0.1626603356 0.0541177887 0.9357766799 0.3484153703 -0.1606205061 0.7005467886 0.6952950813 -0.2221782806 0.6052777829 -0.7643792365 -0.1715765924 0.6047743385 -0.7776949739 -0.2221941701 0.6052776803 -0.7643746990 -0.2220974916 0.6052783034 -0.7644023023 -0.2221985046 0.6052776522 -0.7643734612 -0.2221985524 0.6052776519 -0.7643734476 -0.2222999536 0.6052769918 -0.7643444863 0.6199067470 -0.5976681249 0.5084372503 0.6371381499 -0.5401293189 0.5498320624 0.6389216456 -0.5332528604 0.5544551539 -0.3414395499 -0.9070324684 -0.2463962967 0.2525077834 -0.5850601752 -0.7706778904 -0.2212262464 -0.2826377807 -0.9333674694 0.4830758587 0.0471528379 0.8743079118 0.4833805509 0.0467345015 0.8741619584 0.4835100663 0.0465569882 0.8740998013 0.4833370070 0.0467942940 0.8741828365 0.4839425936 0.0459622882 0.8738918893 0.4837627415 0.0462097776 0.8739784130 0.5216991999 -0.0076179934 0.8530954876 0.4838500745 0.0461003668 0.8739358452 0.4838563968 0.0463345853 0.8739199583 0.4834698927 0.0469305511 0.8741020457 -0.5156106174 -0.2273792483 -0.8261019118 0.4848373869 0.0473618702 0.8733209957 -0.4562251594 -0.1246487390 -0.8810909691 -0.1882808667 -0.3143624072 -0.9304442983 0.9208766758 0.3812920802 -0.0812557543 -0.1775643528 0.4080664172 -0.8955181181 -0.4828615656 -0.0412792165 -0.8747232332 -0.4833482050 -0.0376149067 -0.8746197068 -0.5024692072 -0.0083828467 -0.8645544654 -0.4836277127 -0.0366367987 -0.8745067069 0.7938725141 0.1069361459 0.5986076278 -0.5246865384 0.4580097253 -0.7175870177 -0.6108102795 0.3742448218 -0.6977475301 0.0012003345 0.7101702881 0.7040289206 -0.0110668826 0.7010670613 0.7130094667 0.6386061221 -0.5996680938 0.4822658997 0.6369630080 -0.6295333798 0.4449335346 0.4085434295 0.1278201376 -0.9037445870 0.7459948447 0.6625805049 -0.0669235853 -0.9404383165 -0.2434398614 -0.2373031957 -0.8020486530 0.3527689022 0.4819461172 -0.8281176216 0.3254270186 0.4564191717 -0.8041020551 0.3509673775 0.4798351642 0.5136160119 -0.6991729152 0.4973487981 0.6086211669 -0.6235688052 0.4906548892 0.2530709860 0.8941969587 -0.3692788582 -0.7998096420 -0.4331427486 -0.4155621444 -0.2998078383 0.5941190313 -0.7464166643 -0.2617076413 0.5503534443 -0.7928557226 0.6590124552 -0.1302855808 0.7407619397 0.6911463817 -0.1533892371 0.7062495458 -0.3902465180 -0.5205786626 -0.7594112926 -0.3904534912 -0.5204692832 -0.7593798762 -0.6902126762 0.4137558430 -0.5936434653 -0.6902181479 0.4137663118 -0.5936298068 -0.3905625456 -0.5202689248 -0.7594610878 -0.6902229949 0.4137755850 -0.5936177074 0.1871414298 -0.8939763246 0.4071663250 -0.3908710944 -0.5199793806 -0.7595006461 0.2652339579 -0.9189284901 0.2919270074 -0.3918857426 -0.5200100717 -0.7589565799 0.0241091447 -0.8551398230 0.5178364918 0.5059096947 0.0792676892 0.8589365601 -0.7117089099 0.4965105804 0.4969382971 0.6141696544 0.2370512194 0.7527299350 -0.8737196451 0.4834766879 0.0535189133 -0.3861475811 -0.5682006442 -0.7266622830 -0.4857424372 0.4159491635 0.7687916350 -0.8463464644 0.4906294764 -0.2073170977 0.0066874692 -0.4910549140 -0.8711029498 -0.4185693611 -0.0417319608 -0.9072255141 0.7411733623 0.2209211340 -0.6339210515 -0.8173922282 0.5758037341 0.0178886880 -0.0178560931 0.0249998531 -0.9995279722 0.2804385101 0.9584867353 0.0515501728 -0.1514259250 -0.4150660386 -0.8971010940 -0.3611566216 0.3508988081 -0.8639652315 0.9784027736 0.2029637192 -0.0391630100 -0.0530384873 0.8059375120 0.5896199162 0.6109961160 0.7458007711 0.2654523612 0.5699613642 0.7924754354 0.2170869124 0.0824941247 0.9329856059 0.3503320974 -0.2968956771 0.6336821979 -0.7143527343 -0.2309458654 0.6587710646 -0.7160200359 -0.2560932249 0.6508485229 -0.7147114526 -0.7536358201 0.5228958708 -0.3982624247 -0.7365314742 0.5614946486 -0.3771540098 0.3641372359 -0.6120904009 0.7019611204 0.3661421266 -0.6023990556 0.7092639290 -0.6544013408 -0.7144575757 0.2476070632 0.1739891931 -0.6633081764 -0.7278392843 -0.6928473193 0.7108898807 -0.1208228856 -0.6850264063 0.4365275425 -0.5832516844 -0.7806193790 0.3427446323 -0.5226466323 -0.6188299457 0.7803442921 0.0900682195 -0.7570098924 0.4431799766 -0.4801328267 -0.4508622928 0.3511824582 0.8206059188 -0.4507490562 0.3456984232 0.8229932494 0.7082877632 0.7049354094 -0.0373431802 -0.6636795132 0.2162008734 0.7160912554 -0.4694280753 -0.2616381658 -0.8433165196 0.0096685681 -0.1940918055 -0.9809357216 -0.1666520262 -0.2821155666 -0.9447951679 0.7845530896 -0.4421834163 0.4346841106 -0.0790516396 -0.0808836243 -0.9935837547 -0.3758438911 -0.8730809412 -0.3105978745 -0.3289007777 -0.8853900721 -0.3284945945 -0.5827109987 0.5243973831 -0.6208504462 -0.5609258763 0.5038226459 -0.6569055509 -0.6601713307 0.4165355334 -0.6250375697 0.8302603718 -0.2737122634 0.4855402269 0.8375737935 -0.2959367548 0.4592293301 0.7304394440 0.0729899080 0.6790660439 0.0839626325 -0.2420564409 -0.9666224474 0.4343217802 0.4839370000 -0.7597167704 0.4088556013 0.5026745667 -0.7616793140 0.3212215525 0.5656621442 -0.7595018452 0.2994694523 0.5827422084 -0.7554664557 -0.1992079017 0.8869094078 -0.4167828144 -0.8941549509 -0.0565251958 -0.4441754452 -0.7719547210 0.1795684739 -0.6097877269 0.3086320911 -0.3672606872 0.8774199793 -0.3675097391 0.4519340009 -0.8128297795 -0.3692509841 0.2522251938 -0.8944474061 0.7092421217 -0.4729977325 0.5227320135 -0.8374673991 0.1270192124 -0.5315209076 0.6657535389 0.1344019234 0.7339675391 -0.8057039167 0.1115722255 -0.5817154262 0.1946001654 -0.6676678914 -0.7185752308 0.1985755686 -0.6651934093 -0.7197815444 -0.3719614233 0.9265732740 -0.0557374878 -0.2068164045 -0.7427185750 0.6368642659 -0.2024674067 -0.7697989015 0.6053235502 -0.4557210528 0.4419213721 -0.7726731670 -0.4598216891 0.4271863853 -0.7785087068 0.6762903519 0.3979762541 0.6198760046 -0.1468792941 0.8210544035 -0.5516304374 -0.1549680471 0.8485222792 -0.5059593325 0.3611884948 0.7758249446 0.5173379230 -0.4211679410 -0.8894319933 0.1775620871 -0.5496054608 -0.8339595741 0.0494496329 0.8755687099 0.1636144054 -0.4545434640 -0.6656482707 0.3741164509 -0.6457160838 -0.2658584494 0.5652209354 -0.7809254632 0.3468877247 -0.7082620808 0.6148444774 0.3470510439 -0.7080565348 0.6149890376 0.3470226004 -0.7080350928 0.6150297734 0.3470120196 -0.7080325755 0.6150386413 0.3470258095 -0.7080347993 0.6150283005 0.3470655961 -0.7080411928 0.6149984888 -0.3408340387 0.8105133534 -0.4763404896 -0.3114138471 0.9038411220 -0.2934154767 -0.2531212110 0.9292947216 -0.2689627725 0.8286261477 -0.4326192516 0.3552735432 0.8735651165 -0.3685930429 -0.3178414006 -0.5502044144 -0.8347884303 0.0200842976 -0.5670646656 -0.8216579891 0.0575831054 0.6361056325 -0.2493287731 -0.7302087285 0.5473593363 -0.4219909825 -0.7227180416 -0.5106730599 -0.8330513155 0.2126935157 -0.4999878992 0.8416757926 -0.2039459750 0.1290397846 -0.1912712808 0.9730180014 -0.4954825975 -0.0709074220 -0.8657188534 0.0257670792 0.7805198964 -0.6245996710 -0.4512363365 -0.1187486725 -0.8844684966 -0.9031079157 0.3925357664 0.1741027419 -0.8502255099 0.4602450285 -0.2555212241 -0.8585133210 0.4711250354 -0.2024748843 -0.3864728987 0.5388820360 -0.7484950567 -0.4293247747 0.5238499896 -0.7357047140 0.0073283296 0.1675330926 -0.9858392153 0.3202264754 -0.3177485110 0.8924633820
        </DataArray>
        <DataArray type="Float32" Name="contact force" NumberOfComponents="3" format="ascii">