<?xml version="1.0"?>
<VTKFile type="UnstructuredGrid" version="0.1" byte_order="LittleEndian">
  <UnstructuredGrid>
    <FieldData>
      <DataArray type="Float32" Name="TIME"  NumberOfTuples="1" format="ascii"> 1.2000000000 </DataArray>
      <DataArray type="Int32"   Name="STEP"  NumberOfTuples="1" format="ascii"> 120000 </DataArray>
    </FieldData>
    <Piece NumberOfPoints="279" NumberOfCells="279">
      <Points>
        <DataArray type="Float32" NumberOfComponents="3" format="ascii">
 2.2313200929 0.1865410887 -2.1120268194 2.3508681324 0.1238984407 -2.0840323227 2.2965593950 0.1095890050 -2.2154460379 2.3620207078 0.1219415941 -2.1012330358 2.3083780811 0.1043684656 -2.2196512667 2.4068448878 0.0995789050 -2.2503303562 2.4069216271 0.3378819367 -2.0845209003 2.4184151742 0.3328975370 -2.0922883068 2.4218159065 0.4227470777 -2.1016165235 2.5111110001 0.1736956293 -2.2974888557 2.5188633032 0.1804720190 -2.2980293545 2.4824811517 0.4405340053 -2.1954680113 2.5594967903 0.2364318801 -2.3812187607 2.4597195812 0.3799998658 -2.3708450472 2.4695671801 0.3778467571 -2.3806333803 2.4892105342 0.3940457994 -2.3899065467 2.6087143838 0.3851750513 -2.2533396068 2.6194996502 0.3776208950 -2.2622921925 2.6368476446 0.3692685740 -2.3581784012 2.8846281400 0.2577129517 -1.9138560343 2.8335876735 0.3168469325 -2.0027870819 2.8337592716 0.3126060047 -2.0114616994 2.9255798756 0.5125239184 -2.0759625971 2.9264032621 0.5042893183 -2.0965987887 2.9170708947 0.2844792409 -2.1320030324 2.9181621896 0.2981575727 -2.1397660544 2.8790058912 0.4658826975 -2.2012337280 2.8716543749 0.4472457944 -2.1868202056 2.0757641114 0.7708168619 -1.9336662065 2.0793879164 0.7629245746 -1.9391339567 2.0895144705 0.7644184087 -1.9373516893 2.0074889186 0.8514414590 -1.7696886595 2.0197330077 0.8536303918 -1.7720484165 2.0173353563 0.8542607937 -1.7595241238 2.0530735998 0.6815465590 -1.8536596789 2.0402783355 0.7467251361 -1.7245080964 2.0477358432 0.7409365445 -1.7274264086 2.4670636697 0.7290635310 -2.0291592208 2.5585455167 0.7319215860 -2.0990667940 2.4647084172 0.7211715968 -2.1481238824 2.4686917860 0.7251224288 -2.1515126417 2.4635389053 0.7270229589 -2.1546776493 2.3281825246 0.7425660822 -2.0967045638 2.5659229548 0.8384953555 -2.1510345385 2.4035144419 0.8252238771 -2.0675620562 2.3983181411 0.8264084374 -2.0728461409 2.4066371156 0.8305102133 -2.0728787333 2.4019590539 0.8319370523 -2.0784922294 2.3978156693 0.8339182799 -2.0847953967 2.2357224196 0.4160549680 -1.7284550962 2.3155482678 0.4075466957 -1.6418117039 2.1582481259 0.6002538118 -1.7376717846 2.1360033263 0.6230863428 -1.6828233961 2.3933505896 0.4804263186 -1.6943608384 2.4009985349 0.4802260762 -1.7041224319 2.4058167743 0.4960875422 -1.7030620912 2.4122173840 0.4948924775 -1.7116381982 2.3008222532 0.4079321183 -1.8562442662 2.2643764604 0.6941378178 -1.5957481594 2.2646715550 0.7320586366 -1.8088711219 2.4799296590 0.4765163649 -1.8342996442 2.4878892422 0.4876845266 -1.8348896566 2.3316061702 0.8198838515 -1.6977127965 2.4733053665 0.7733042247 -1.7378084843 2.4850286032 0.7913639636 -1.7489468458 2.4034911413 0.8666747170 -1.9021587766 2.7797325326 0.2969072645 -2.0014879177 2.7855995050 0.2945860663 -2.0137163249 2.7724975298 0.1543607439 -2.0306731426 2.4799482567 0.0475022653 -2.2042285246 2.5810641529 0.2192254946 -2.1662822595 2.6650200056 0.3533605347 -2.1430480981 2.6758624436 0.3608598863 -2.1410793103 2.5086307707 0.2850805037 -2.0450819222 2.5027010429 0.2836710631 -2.0359395038 2.5719211620 0.1846149254 -1.9255343798 2.4650105093 0.2227866239 -1.9558337085 2.6950379173 0.5345067202 -1.8337126079 2.0672787888 0.4041069373 -1.9472555025 2.0619741156 0.3987784686 -1.9370283186 2.0583772819 0.4234599628 -1.8180188177 2.0642445161 0.4324687617 -1.8122993819 2.0612375006 0.4407984108 -1.8037276766 2.0669038665 0.4477465821 -1.7998301672 2.0639144262 0.4547911933 -1.7923574853 2.0664914174 0.4674065442 -1.7821918685 2.0634653483 0.4745636290 -1.7746242709 2.0265076307 0.5650347133 -1.8478770507 2.0311053067 0.5700903475 -1.8493818819 2.0850472367 0.6054285632 -1.7194304202 2.0807438875 0.6143763157 -1.7276784973 2.1497504730 0.3370873716 -1.7709996539 2.2090096816 0.2556150311 -1.8688925919 2.2047398554 0.2469976797 -1.8660295969 2.2146136486 0.2562664574 -1.8724290292 2.1988499259 0.2410329349 -1.8622015462 2.2107018486 0.2463057732 -1.8697521500 2.2197951057 0.2587293844 -1.8757361200 2.2247840861 0.2631508254 -1.8789631590 2.2298225540 0.2699516947 -1.8822665196 2.2352162226 0.2799626968 -1.8858408171 2.0935623351 0.2610601473 -1.7259761484 2.2418937298 0.2782725898 -1.8900123268 2.2960339242 0.2711140366 -1.8245282652 2.3026268144 0.2789553503 -1.8292691646 2.3105224522 0.2758378507 -1.8331785500 2.1228205548 0.1864615077 -1.7239030553 2.0774957556 0.1125047829 -1.7528245867 2.0902979225 0.0892826956 -1.7629554561 2.1659906815 0.0052505441 -1.7527785449 2.2951675058 0.0781572299 -1.8119444239 2.3078086759 0.0975110449 -1.8199613859 2.3136675438 0.1075157882 -1.8236732816 2.3205150344 0.1123567303 -1.8280834205 2.8035500670 0.1621668168 -2.1724759604 2.7566014059 0.0837440415 -2.1792054877 2.8330841727 0.1000353456 -1.9893990441 2.3516400393 0.2474649091 -1.7035988667 2.3681810229 0.1950804308 -1.7645156754 2.3165944038 0.2782122608 -1.7656462989 2.3204626006 0.2774700736 -1.7732080968 2.6996466535 0.6831593815 -1.8874907085 2.6461356101 0.6139701452 -2.0418168608 2.7434545977 0.6695757249 -2.0250953242 2.7407522576 0.6725214957 -2.0308504471 2.7441154027 0.6787318988 -2.0287908916 2.6691129877 0.7451016315 -2.0405184630 2.4168614075 0.4903709150 -2.0723861933 2.4907591454 0.4939225582 -2.0739506876 2.4955749263 0.5129796134 -2.0685117784 2.5042444142 0.5057804556 -2.0786190140 2.3881738496 0.5520292213 -2.2055687524 2.3917403775 0.5661586885 -2.2058431352 2.3937405556 0.5794496298 -2.2043547891 2.4003505499 0.5640331476 -2.2161991340 2.4023930577 0.5772094163 -2.2146417765 2.4030990016 0.5898453321 -2.2116546482 2.5733082017 0.6381262148 -2.1453798342 2.5818427445 0.6408657947 -2.1516753155 2.5903591946 0.6436031210 -2.1579622524 2.6342318776 0.4620010521 -2.2412328752 2.6418891900 0.4724003503 -2.2436967968 2.5991841168 0.6465200172 -2.1645245515 2.6493022115 0.4825243719 -2.2462374099 2.5003483495 0.7344589832 -2.2553312732 2.6087194299 0.6498409666 -2.1717104416 2.5078608283 0.7331347477 -2.2649043085 2.6195610932 0.6539005637 -2.1800334009 2.5726029024 0.7587781780 -2.2513284785 2.6641385189 0.5511705676 -2.3446343477 2.5754905151 0.6292164910 -2.3696729118 2.6724630068 0.5580813516 -2.3396310600 2.5889282408 0.6420252040 -2.3814809039 2.7335406688 0.6684742428 -2.2748980319 2.2314390951 0.7269747480 -2.1293288960 2.2471025724 0.7280273138 -2.1368601527 2.2425639939 0.7380673572 -2.1390766580 2.2504459614 0.7384897999 -2.1428067888 2.3278754933 0.6355771404 -2.2252696577 2.3288004468 0.6422559551 -2.2200192728 2.3332770333 0.6474241351 -2.2288598235 2.3346046837 0.6542052136 -2.2244716132 2.4500225789 0.1134445366 -1.8499348579 2.4445189813 0.0176259978 -1.7867113537 2.2730275187 0.1147152588 -1.7173746464 2.3460701334 0.0608063922 -1.7023020952 2.2743003953 0.0128174749 -1.6823163719 2.9504782760 0.4103280028 -2.0840851736 2.1806869717 0.0497757244 -2.0267753436 2.1967427405 0.1438424617 -2.0554165940 2.2002157825 0.1415231466 -2.0562559554 2.2005739597 0.1469197231 -2.0542527300 2.2042364853 0.1446266712 -2.0551201076 2.1084876826 0.1290765344 -1.6645939545 2.0304416244 0.8688247796 -1.6911450821 2.3284938038 0.4556146868 -2.0423362362 2.3251206562 0.4457481974 -2.0401939104 2.4425511679 0.3609920114 -2.0269772437 2.5419463715 0.5721013021 -2.4102940363 2.5342435949 0.5764917416 -2.4058154069 2.6206551686 0.0602326682 -2.2257559135 2.5975085800 0.0709319748 -2.1821953012 2.6076299335 0.0754613126 -2.1817758858 2.6010856580 0.0771294498 -2.1775423909 2.6934008040 0.1082998973 -2.2389691726 2.5655163907 0.1810479997 -2.2684631147 2.5704460540 0.1848406523 -2.2688561895 2.4999879869 0.1186399838 -1.7407605314 2.8172070737 0.5895599772 -2.2387422763 2.7825591772 0.5852197481 -2.1483424007 2.7830665403 0.4620981126 -2.2165019361 2.7786739453 0.4592606804 -2.2117216673 2.7780293732 0.4544894775 -2.2161867151 2.7740743641 0.4520857490 -2.2115059491 2.7263472472 0.3692984074 -2.2766505526 2.7087488798 0.6334849562 -2.1245040663 2.6118503425 0.5827505855 -2.0615221420 2.6043565510 0.5868609438 -2.0555265020 2.1416296499 0.8512441331 -1.7032734483 2.1486275070 0.8502866677 -1.6995716748 2.0811449279 0.2430712846 -1.9664621832 2.1629078422 0.2424621184 -2.0637582862 2.1188202926 0.3840092527 -2.0042487496 2.1166877973 0.3853948973 -2.0119206944 2.1232388902 0.3798767551 -2.0132268851 2.2478564999 0.1487018402 -1.6935358412 2.5130068335 -0.0038342341 -1.8515528068 2.4844109349 0.0067981456 -1.9731866685 2.5681280033 0.0044804295 -1.9833277816 2.5914269905 0.1985586325 -1.8351779572 2.6015639256 0.1965212122 -1.8395071254 2.6101787792 0.1306747299 -1.8677957874 2.6052707086 0.1269110636 -1.8641304608 2.4994637444 0.1350120485 -1.8815504689 2.1894641215 0.8372127162 -2.0730200502 2.3084457918 0.7894908061 -2.1544238028 2.3029003342 0.8091513571 -2.1487525804 2.5768887163 0.7517623412 -1.7670338136 2.5699029222 0.7533138392 -1.6901517132 2.1450120062 0.0403041858 -1.9542624915 2.0943837510 0.0236806999 -1.9787782673 2.0892638183 0.0219145809 -1.9826236143 2.0840939042 0.0295295063 -1.9783474878 2.3926083022 0.7992050068 -1.6184225746 2.2435123057 0.7696702769 -1.9613691325 2.3055384834 0.8929469827 -1.9297944711 2.3144698435 0.8939576058 -1.9417575817 2.2862018618 0.8705425976 -1.9581213810 2.0068829900 0.1737153952 -1.8861137426 2.0738457480 0.0993882647 -1.9600923544 2.6509793025 0.8861720991 -2.1586029848 2.7415184542 0.8740691180 -2.1066544084 2.6431860771 0.8891897658 -2.1498518330 2.7378871157 0.8527232143 -2.1050683903 2.7765576944 0.6397278540 -2.0702668735 2.7794046883 0.6435843024 -2.0726230558 2.7758778661 0.6459486310 -2.0754022958 2.7788173612 0.6505648597 -2.0783224618 2.7941245769 0.3569924076 -2.1980974107 2.6211515094 0.0390281327 -2.1114562730 2.6227195531 0.0335847230 -2.1181154051 2.7177788206 0.0216395916 -2.2738873326 2.7159731898 0.0144693138 -2.2675380141 2.7290166596 0.0081468733 -2.2263443029 2.7272520760 0.0111680698 -2.2167997595 2.1962192444 0.1178634614 -2.1143424545 2.6647485878 0.8435121144 -2.2707591462 2.6649596101 0.8521047832 -2.2702308994 2.5871161113 0.8799358687 -2.2464452939 2.4510452098 0.4515246886 -1.6210164931 2.2915978126 0.5709521943 -1.5089622017 2.5699770319 0.1059065895 -2.4670318844 2.5714607325 0.1138733502 -2.4576982422 2.5778233270 0.1164452910 -2.4591031777 2.5796135962 0.1214862100 -2.4538211742 2.5819739316 0.1254688684 -2.4503499502 2.5850131266 0.1287735494 -2.4482785505 2.5889490405 0.1316207987 -2.4474744616 2.6055459015 0.0243095575 -2.0438161700 2.6264430497 0.0297945170 -2.0538582703 2.6356579648 0.2830239115 -2.4306508560 2.0735457813 0.5955027180 -1.9161981924 2.0647079255 0.5831510442 -1.9182903635 2.2170770130 0.6237007170 -1.9466587381 2.2015898288 0.4949880556 -2.0359948733 2.2524920182 0.6987537251 -1.9981195001 2.2962579965 0.4643280611 -2.1522021464 2.2925623478 0.4100111977 -1.5981153932 2.2064266666 0.2859578878 -1.6528620232 2.2121044606 0.2768379649 -1.6555084729 2.0550500495 0.0350803454 -1.8642585705 2.4263291916 0.7646631291 -1.6583994295 2.4886364943 0.0197666597 -1.7990708515 2.4737698119 -0.0024023635 -1.7391450673 2.1126472333 0.3967213616 -1.7535998784 2.1062220038 0.3941025542 -1.7511746209 2.6064033160 -0.0397966528 -1.9011488729 2.3676867523 0.8847424637 -1.9885532687 2.3607986800 0.8788057777 -1.9878348511
        </DataArray>
      </Points>
      <Cells>
        <DataArray type="Int32" Name="connectivity" format="ascii">
 0 1 2 3 4 5 6 7 8 9 10 11 12 13 14 15 16 17 18 19 20 21 22 23 24 25 26 27 28 29 30 31 32 33 34 35 36 37 38 39 40 41 42 43 44 45 46 47 48 49 50 51 52 53 54 55 56 57 58 59 60 61 62 63 64 65 66 67 68 69 70 71 72 73 74 75 76 77 78 79 80 81 82 83 84 85 86 87 88 89 90 91 92 93 94 95 96 97 98 99 100 101 102 103 104 105 106 107 108 109 110 111 112 113 114 115 116 117 118 119 120 121 122 123 124 125 126 127 128 129 130 131 132 133 134 135 136 137 138 139 140 141 142 143 144 145 146 147 148 149 150 151 152 153 154 155 156 157 158 159 160 161 162 163 164 165 166 167 168 169 170 171 172 173 174 175 176 177 178 179 180 181 182 183 184 185 186 187 188 189 190 191 192 193 194 195 196 197 198 199 200 201 202 203 204 205 206 207 208 209 210 211 212 213 214 215 216 217 218 219 220 221 222 223 224 225 226 227 228 229 230 231 232 233 234 235 236 237 238 239 240 241 242 243 244 245 246 247 248 249 250 251 252 253 254 255 256 257 258 259 260 261 262 263 264 265 266 267 268 269 270 271 272 273 274 275 276 277 278
        </DataArray>
        <DataArray type="Int32" Name="offsets" format="ascii">
 1 2 3 4 5 6 7 8 9 10 11 12 13 14 15 16 17 18 19 20 21 22 23 24 25 26 27 28 29 30 31 32 33 34 35 36 37 38 39 40 41 42 43 44 45 46 47 48 49 50 51 52 53 54 55 56 57 58 59 60 61 62 63 64 65 66 67 68 69 70 71 72 73 74 75 76 77 78 79 80 81 82 83 84 85 86 87 88 89 90 91 92 93 94 95 96 97 98 99 100 101 102 103 104 105 106 107 108 109 110 111 112 113 114 115 116 117 118 119 120 121 122 123 124 125 126 127 128 129 130 131 132 133 134 135 136 137 138 139 140 141 142 143 144 145 146 147 148 149 150 151 152 153 154 155 156 157 158 159 160 161 162 163 164 165 166 167 168 169 170 171 172 173 174 175 176 177 178 179 180 181 182 183 184 185 186 187 188 189 190 191 192 193 194 195 196 197 198 199 200 201 202 203 204 205 206 207 208 209 210 211 212 213 214 215 216 217 218 219 220 221 222 223 224 225 226 227 228 229 230 231 232 233 234 235 236 237 238 239 240 241 242 243 244 245 246 247 248 249 250 251 252 253 254 255 256 257 258 259 260 261 262 263 264 265 266 267 268 269 270 271 272 273 274 275 276 277 278 279
        </DataArray>
        <DataArray type="UInt8" Name="types" format="ascii">
 1 1 1 1 1 1 1 1 1 1 1 1 1 1 1 1 1 1 1 1 1 1 1 1 1 1 1 1 1 1 1 1 1 1 1 1 1 1 1 1 1 1 1 1 1 1 1 1 1 1 1 1 1 1 1 1 1 1 1 1 1 1 1 1 1 1 1 1 1 1 1 1 1 1 1 1 1 1 1 1 1 1 1 1 1 1 1 1 1 1 1 1 1 1 1 1 1 1 1 1 1 1 1 1 1 1 1 1 1 1 1 1 1 1 1 1 1 1 1 1 1 1 1 1 1 1 1 1 1 1 1 1 1 1 1 1 1 1 1 1 1 1 1 1 1 1 1 1 1 1 1 1 1 1 1 1 1 1 1 1 1 1 1 1 1 1 1 1 1 1 1 1 1 1 1 1 1 1 1 1 1 1 1 1 1 1 1 1 1 1 1 1 1 1 1 1 1 1 1 1 1 1 1 1 1 1 1 1 1 1 1 1 1 1 1 1 1 1 1 1 1 1 1 1 1 1 1 1 1 1 1 1 1 1 1 1 1 1 1 1 1 1 1 1 1 1 1 1 1 1 1 1 1 1 1 1 1 1 1 1 1 1 1 1 1 1 1 1 1 1 1 1 1 1 1 1 1 1 1
        </DataArray>
      </Cells>
      <PointData Scalars="overlap">
        <DataArray type="Float32" Name="overlap" format="ascii">
 0.0001112124 0.0001205470 0.0005886974 0.0001129221 0.0004658517 0.0000232344 0.0000873180 0.0000487481 0.0001341050 0.0000576975 0.0002538220 0.0003256443 0.0000288051 0.0000648602 0.0000312436 0.0003284427 0.0000083824 0.0002252583 0.0001263397 0.0001052968 0.0003220029 0.0001888432 0.0003885391 0.0001481596 0.0002758267 0.0002117351 0.0001205649 0.0004556977 0.0000377586 0.0002358132 0.0000386917 0.0000392464 0.0001798522 0.0001171889 0.0003307203 0.0001123046 0.0000980099 0.0000701340 0.0002488157 0.0002233640 0.0005459050 0.0000413783 0.0001894192 0.0000694852 0.0001248928 0.0001735355 0.0002054974 0.0003739274 0.0001539008 0.0000199545 0.0000650764 0.0002096351 0.0000032752 0.0000644378 0.0000190306 0.0000182298 0.0000782930 0.0003444617 0.0001508929 0.0000314000 0.0001055584 0.0000223994 0.0000046495 0.0000662884 0.0000391650 0.0001736190 0.0000451014 0.0000253798 0.0000233487 0.0000519864 0.0001500973 0.0000841317 0.0001057293 0.0000139168 0.0001812177 0.0000619206 0.0001143589 0.0000069667 0.0000250126 0.0000184124 0.0000290212 0.0000374131 0.0000452282 0.0000074138 0.0000369141 0.0000036891 0.0000061358 0.0001127819 0.0000858219 0.0000347076 0.0000478799 0.0000087578 0.0000522484 0.0000397310 0.0000754159 0.0000159301 0.0000370808 0.0000894817 0.0001045562 0.0001172672 0.0001006526 0.0000559015 0.0001189502 0.0000003156 0.0000446032 0.0000034686 0.0002620965 0.0000344774 0.0000685805 0.0000298671 0.0000006649 0.0000862766 0.0000406278 0.0000140420 0.0000211115 0.0000110257 0.0001280089 0.0000074264 0.0000094727 0.0000085648 0.0000019569 0.0001812623 0.0000615920 0.0000658468 0.0001955736 0.0000240237 0.0002722263 0.0001703800 0.0002567505 0.0002081008 0.0001267199 0.0002816333 0.0004961944 0.0002171511 0.0000235875 0.0003701619 0.0001797699 0.0000215686 0.0000420376 0.0000529514 0.0001612645 0.0002800568 0.0000601369 0.0002076224 0.0003599096 0.0000662326 0.0003131835 0.0000625867 0.0000279014 0.0000000679 0.0000168256 0.0001510190 0.0002853090 0.0001709425 0.0000121262 0.0000848310 0.0002451467 0.0001287171 0.0003009704 0.0000535287 0.0001278629 0.0000311763 0.0000313264 0.0000603138 0.0000444057 0.0000223256 0.0000578231 0.0000348764 0.0000061645 0.0000185843 0.0000268679 0.0000077752 0.0000115554 0.0005782323 0.0000704507 0.0000183504 0.0000115074 0.0000153486 0.0001162196 0.0000762400 0.0000467213 0.0000082549 0.0000168606 0.0000705397 0.0000318954 0.0002207240 0.0000444531 0.0002091940 0.0000422082 0.0000416549 0.0000106183 0.0001554691 0.0001236195 0.0001526251 0.0000939342 0.0000482253 0.0000114457 0.0000295256 0.0000573910 0.0000640899 0.0002494754 0.0000432710 0.0002793931 0.0000832539 0.0000868112 0.0000830195 0.0000755731 0.0001134759 0.0000423527 0.0000158570 0.0000029666 0.0000157268 0.0000587942 0.0000416060 0.0000502993 0.0000217805 0.0000171523 0.0000232882 0.0000679262 0.0002303297 0.0001838857 0.0000694703 0.0001694761 0.0000188977 0.0001022350 0.0000573090 0.0000425501 0.0001234034 0.0000496508 0.0000895191 0.0001355566 0.0000074498 0.0000201246 0.0000573236 0.0000114012 0.0000018958 0.0000123060 0.0000066678 0.0000506488 0.0000745120 0.0000234148 0.0000339578 0.0000079734 0.0000080381 0.0000391751 0.0000311817 0.0000246487 0.0000128982 0.0000026919 0.0000522178 0.0000219650 0.0000711049 0.0000198864 0.0000900210 0.0000512385 0.0000263395 0.0000192490 0.0000239054 0.0000106087 0.0000159299 0.0000331643 0.0000512760 0.0000049364 0.0000497145 0.0000171941 0.0000026162 0.0000325147 0.0000345287 0.0000132633 0.0000218427 0.0001961280 0.0000168129 0.0000369437 0.0000361794 0.0000215009 0.0000244218 0.0000418695 0.0000006616 0.0000480895
        </DataArray>
        <DataArray type="Float32" Name="contact normal" NumberOfComponents="3" format="ascii">
 0.5988179837 -0.1079222093 -0.7935803798 -0.5030744561 0.7641125995 -0.4037920590 0.4958022108 0.7743859446 0.3930732459 -0.4754000503 0.7537134520 -0.4537739795 0.5082023400 0.7675821750 0.3905739190 -0.5617830829 0.7755108068 -0.2880672772 -0.6273889192 0.0608123453 -0.7763278964 -0.5230844657 0.0041436723 -0.8522707737 0.2556628844 -0.7043217394 -0.6622441974 -0.7279780750 0.6734464755 -0.1285214654 -0.6804634870 0.7178859568 -0.1470006661 -0.3272815447 -0.9265814621 -0.1852932395 -0.4299996172 0.3825222557 0.8177879023 0.5171241950 -0.5467149127 0.6585479263 0.5222100387 -0.5394633478 0.6605119014 0.5591454012 -0.4830221806 0.6738293504 -0.7110500793 0.1637262691 -0.6838139320 -0.6883586875 0.0102521813 -0.7252980147 -0.1791119882 -0.1773558509 0.9677105961 -0.9107304423 0.3400520497 -0.2343814518 0.9193064357 -0.2188120664 0.3271038930 0.9477062373 -0.2064847307 0.2433453181 -0.9848122461 -0.1606185664 -0.0659281123 -0.9790059884 -0.1801106511 -0.0954328458 -0.9616294328 0.1754574171 0.2109111869 -0.9137625544 0.4062485235 0.0003624699 0.9234243349 0.0106190017 0.3836335941 0.8935724412 -0.1091317898 0.4354521154 -0.1274039373 -0.5958051154 0.7929593314 -0.1307086061 -0.5971475711 0.7914101583 -0.0572588910 -0.5704818640 0.8193118223 0.1723695205 -0.9818519660 0.0790914992 0.2372587349 -0.9665873923 0.0970417737 0.2372864000 -0.9665798360 0.0970493951 0.3924849154 0.9197226192 -0.0081175710 0.1926277149 0.6153135622 -0.7643845784 0.2248453127 0.5802779617 -0.7827656562 -0.5328449915 -0.0700852069 -0.8433055667 -0.7568921438 0.6326757494 0.1638159907 -0.4723987358 0.5979268722 0.6475514574 -0.4102387137 0.6167317534 0.6718229991 -0.4462021518 0.6249886682 0.6405410247 0.8012417341 0.1658825993 0.5748866382 0.1190661091 -0.7474449855 0.6535665653 0.3188385653 -0.8063104634 -0.4982021737 0.3255759119 -0.8003672298 -0.5034010558 0.4215967759 -0.7423620939 -0.5207251483 0.4043222704 -0.7537631652 -0.5180391805 0.3923091962 -0.7614327860 -0.5160558177 0.4731649131 0.8531821038 -0.2195341950 0.0972343758 0.8485616019 -0.5200852661 0.6948446929 -0.4499667282 0.5609998185 0.9965146518 -0.0243613310 -0.0797814156 -0.7565936847 0.2820392252 -0.5899320908 -0.7516819615 0.2615121820 -0.6054631347 -0.7506274110 0.3266923445 -0.5743088037 -0.7501918466 0.2930546985 -0.5927319267 0.3784957526 0.4940325988 0.7827341545 -0.1784177431 -0.3805042151 -0.9074048993 0.4479591947 -0.8940273972 -0.0068973183 -0.8904767481 0.3558399588 -0.2836002199 -0.7709570042 0.6315361710 0.0823854497 0.2031401556 -0.5487883241 -0.8109040958 -0.6034411822 -0.1537607626 -0.7824425650 -0.4644584691 -0.1417172360 -0.8741822210 0.4048097617 -0.7668886090 0.4980069461 0.7746824700 -0.4126077624 0.4791887990 0.7795660443 -0.4072884042 0.4758076695 -0.5791972511 0.8089986194 -0.1002585569 0.0511197343 -0.4358594006 0.8985618263 0.1287762693 0.5892809991 0.7975992581 -0.3442867115 -0.8085961990 0.4771151300 0.7213692701 -0.4203805816 0.5503694603 0.6750796350 -0.7219104183 -0.1520290577 0.7196737356 -0.3124933752 0.6200141973 -0.3182641642 0.6352316276 -0.7036964552 0.8691703117 0.4583773153 -0.1855618659 -0.5525571030 -0.8111105315 -0.1917820471 0.0326500101 0.9164764601 0.3987541535 -0.1500919283 0.6520897076 0.7431362098 -0.2907875089 0.6365198406 -0.7143424369 -0.2410202283 0.6392014218 -0.7302950033 -0.2908030473 0.6365187225 -0.7143371079 -0.2907081331 0.6365255512 -0.7143696550 -0.2908072556 0.6365184195 -0.7143356646 -0.2908072613 0.6365184191 -0.7143356626 -0.2909067646 0.6365112530 -0.7143015324 0.6904952456 -0.5401792086 0.4810641729 0.6922294539 -0.5335065786 0.4859929152 -0.3137542729 -0.9067426036 -0.2817376565 0.2347094885 -0.5269489303 -0.8168453225 -0.2602962164 -0.2390598344 -0.9354658066 0.5285636982 0.0201596576 0.8486542318 0.5288783856 0.0197651660 0.8484674369 0.5290116593 0.0195983833 0.8483882176 0.5288336767 0.0198212205 0.8484939962 0.5294582852 0.0190376862 0.8481223324 0.5292722695 0.0192714033 0.8482331506 0.5293617120 0.0191691371 0.8481796520 0.5293564872 0.0194039551 0.8481775734 0.5289542521 0.0199696674 0.8484153532 -0.5505639670 -0.2046854393 -0.8093103170 0.5302561339 0.0205076745 0.8475894453 -0.4954214753 -0.1027521616 -0.8625540882 -0.4989988726 -0.0958966961 -0.8612804124 -0.4832958083 -0.1230505733 -0.8667662419 -0.2217863127 -0.2667919166 -0.9378874691 0.8768098699 0.4797156819 0.0328225012 0.8968369758 0.4291520646 -0.1072937292 -0.2457548350 0.4497011243 -0.8587045242 -0.5288280665 -0.0142422880 -0.8486094705 -0.5294701001 -0.0106213433 -0.8482621058 -0.5492922108 0.0170260995 -0.8354568685 -0.5297841626 -0.0096693251 -0.8480773816 0.5987027868 -0.7601645763 0.2523980785 0.8201829124 0.1106121957 0.5613064514 -0.5884492721 0.4773998675 -0.6525464126 0.0382098879 -0.5986871137 -0.8000710871 0.0175920741 0.6344670012 0.7727497288 0.6911024835 -0.5942012991 0.4114634534 0.6886697154 -0.6116815456 0.3893323900 0.3872228369 0.2030717782 -0.8993443876 0.7061189456 0.7042508850 -0.0736663131 -0.7894222510 0.2861145627 0.5430938839 -0.7915134129 0.2843422639 0.5409768888 -0.7869125932 0.2889546824 0.5452281745 0.5728155275 -0.6984153809 0.4290668097 0.1947419238 0.9259993478 -0.3234204553 -0.8019289332 -0.4414855060 -0.4024928994 -0.3668391420 0.6198618744 -0.6936860245 -0.3295888626 0.5807332867 -0.7443923908 0.7325405094 -0.1824563565 0.6558155839 0.7324991993 -0.1824268297 0.6558699374 0.7022975597 -0.1613352137 0.6933607189 0.7606840739 -0.2030195741 0.6165572092 0.7606252188 -0.2029755177 0.6166443186 0.7325131796 -0.1824368105 0.6558515472 -0.4082797571 -0.4948487890 -0.7670934206 -0.4084060719 -0.4946199003 -0.7671737969 -0.4086117646 -0.4945295433 -0.7671225174 -0.7400110604 0.4135292436 -0.5304499931 -0.7400162146 0.4135386177 -0.5304354945 -0.4087307447 -0.4943365962 -0.7671834905 -0.7400207794 0.4135469196 -0.5304226535 0.2562432004 -0.9095534837 0.3271878397 -0.4090492347 -0.4940681243 -0.7671866866 0.3211949973 -0.9252715984 0.2017578820 -0.4100183741 -0.4941919264 -0.7665893769 0.0918852716 -0.8808944847 0.4643080914 -0.7136870409 0.4237512131 0.5577505868 0.5479516431 0.0539522773 0.8347683203 -0.7041886747 0.4325823916 0.5630193468 0.6432490758 0.2225654201 0.7325948814 -0.8903250236 0.4367086068 0.1288679367 -0.3581696919 -0.4494150897 -0.8183767769 -0.0474989074 -0.7078025699 -0.7048115889 -0.3329187519 -0.4228599511 -0.8428253475 -0.3200428409 -0.4301129664 -0.8441418223 -0.9067558723 0.3458204113 -0.2412509715 -0.9187585694 0.3774348441 -0.1158690194 -0.9060584767 0.3446076499 -0.2455679222 -0.9100171646 0.3518849377 -0.2191934095 -0.4606173178 0.3477877396 0.8166243780 -0.8776947308 0.4608003750 -0.1315863742 -0.0159827901 -0.4369596629 -0.8993390926 -0.5018317468 0.0428405722 -0.8639036886 0.6937899620 0.2938259550 -0.6575118225 -0.8444841097 0.5273614923 0.0934689517 0.2973598973 0.9514677565 0.0792855580 -0.0161289199 -0.3384051070 0.9408622861 -0.0070668870 -0.3470078655 0.9378355935 -0.0105003788 -0.3432138522 0.9391985912 -0.0030893752 -0.3509522079 0.9363882760 -0.2127831916 0.3401756135 0.9159715418 -0.4532167130 0.3251665632 -0.8299766968 0.9647198667 0.2511322229 -0.0790454648 0.6449459052 -0.6675531835 0.3720450597 -0.0563773452 0.7676868348 0.6383404410 0.5904815026 0.7579925972 0.2770899091 0.5446161086 0.8055230173 0.2335079504 0.0597644557 0.9143026113 0.4005982336 -0.3644913226 0.6588270663 -0.6580979961 -0.2999389073 0.6871179964 -0.6617442942 -0.3245775591 0.6779342074 -0.6595867029 -0.7973343412 0.5079493922 -0.3259530078 0.4302360775 -0.6329483514 0.6436406622 0.4322117470 -0.6236425745 0.6513546999 -0.7295983881 0.6791231735 -0.0804854476 -0.6067857973 -0.7580119171 0.2392256878 0.1627507936 -0.6118918154 -0.7740158819 -0.6824468109 0.4958141631 -0.5370611380 -0.7298516736 0.6823708495 -0.0410677281 -0.7355659536 0.4356019791 -0.5188387454 -0.8232976338 0.3340095109 -0.4589320786 -0.6504519579 0.7057301369 0.2808152851 -0.8017957327 0.4339836294 -0.4108306373 -0.2733425619 0.5586688207 -0.7830536333 -0.3119329251 0.5967847645 -0.7392873563 -0.4196241101 0.2814327371 0.8629665235 -0.4191320496 0.2758382817 0.8650095765 0.6726806895 0.7392083802 -0.0327362274 -0.6325174481 0.1423744546 0.7613482728 -0.5800707120 -0.8113311130 0.0725244391 -0.6117258726 -0.7903880735 0.0328351958 -0.6082593719 -0.7930669294 0.0326401886 -0.2059650511 -0.2346465313 -0.9500102121 -0.2830468127 0.5856882078 -0.7595089368 0.8252948085 -0.4313094389 0.3645005445 -0.9807553751 0.0192483247 0.1942894652 -0.3529230685 -0.8713997016 -0.3407460458 -0.3065403855 -0.8802793478 -0.3621343148 -0.6939620253 0.5191789656 -0.4988686292 -0.7021040698 0.5114792044 -0.4954179031 0.8744603518 -0.2811413423 0.3953209314 0.5212950680 0.0923579821 0.8483639875 -0.7572423237 -0.1305009491 -0.6399637220 -0.7494978808 -0.0812662977 -0.6569997836 0.7626685901 0.0702389260 0.6429643185 0.0404443749 -0.1827120887 -0.9823342329 -0.2742135650 -0.6995981642 -0.6598252265 0.3538330177 0.5742846707 -0.7382406874 0.3274816488 0.5960849351 -0.7331019847 0.2872372446 0.6408104294 -0.7119387325 -0.0727272708 0.1866224957 0.9797360809 -0.2693759004 0.9011466099 -0.3396636746 -0.9141045827 -0.0742022820 -0.3986311994 -0.8120655552 0.1765135674 -0.5562306127 0.3732178615 -0.4013951061 0.8364152059 -0.4322975816 0.4789755058 -0.7640034462 -0.4378451016 0.2311756558 -0.8688207428 0.7581884581 -0.4671314056 0.4549049482 -0.8709606519 0.1173318832 -0.4771381058 0.6990790346 0.1247264294 0.7040822546 -0.8414172539 0.1063550833 -0.5298165731 0.1835876414 -0.6147488033 -0.7670589852 0.1877623583 -0.6133518684 -0.7671667239 0.1841195688 -0.6142171921 -0.7673572996 0.1878844011 -0.6114976136 -0.7686157169 -0.4155283938 0.9093725249 0.0194361761 -0.5175854275 0.4631669638 -0.7194315039 -0.5213394167 0.4486160231 -0.7259124440 0.6912472778 0.3938579211 0.6058491057 0.6903775640 0.3669939656 0.6234534852 -0.2145413210 0.8432897364 -0.4927823476 -0.2212967559 0.8676867326 -0.4451375965 0.2154501785 0.8754300891 0.4326700587 0.9941070684 -0.0978537980 -0.0466451578 0.8395036358 0.2330593589 -0.4908329458 0.4432689426 -0.7104251207 0.5466340572 -0.7144977791 0.3752567291 -0.5904873504 -0.3343504503 0.5951041469 -0.7307946570 0.4139876305 -0.7241296637 0.5515890426 0.4140559356 -0.7239184572 0.5518149595 0.4141491411 -0.7239249129 0.5517365398 0.4141220168 -0.7239072205 0.5517801114 0.4141117429 -0.7239057211 0.5517897891 0.4141248892 -0.7239066711 0.5517786764 0.4141630291 -0.7239094058 0.5517464613 -0.4045876965 0.8177713514 -0.4093394835 -0.3104460787 0.9293675947 -0.1997476058 0.8674262984 -0.2963059447 -0.3997179054 0.6042487816 -0.1761005717 -0.7770920143 0.5237598379 -0.3529702325 -0.7752984246 -0.4564611401 -0.8674320910 0.1980020079 -0.5474708036 0.8270400670 -0.1275948539 0.3132532985 -0.0392236150 0.9488592514 0.1565607901 -0.1906011573 0.9691026354 -0.5397702354 -0.0486931682 -0.8404029202 0.6386162460 0.3070747272 0.7056021558 0.7817608812 0.2954528676 0.5491425385 -0.5601703446 0.5170281195 0.6472179762 -0.4942442308 -0.0901189253 -0.8646393581 -0.9087705299 0.3378949422 0.2448737064 -0.9315603894 0.3325998925 -0.1468759766 -0.4517541921 0.5617084419 -0.6931102194 -0.4931315481 0.5439023884 -0.6789635249 -0.0548852183 0.2256112967 -0.9726701165 0.3893667956 -0.3027935906 0.8698905333 0.3833939799 -0.3523203184 0.8537443701
        </DataArray>
        <DataArray type="Float32" Name="contact force" NumberOfComponents="3" format="ascii">