<?xml version="1.0"?>
<VTKFile type="UnstructuredGrid" version="0.1" byte_order="LittleEndian">
  <UnstructuredGrid>
    <FieldData>
      <DataArray type="Float32" Name="TIME"  NumberOfTuples="1" format="ascii"> 0.8500000000 </DataArray>
      <DataArray type="Int32"   Name="STEP"  NumberOfTuples="1" format="ascii"> 85000 </DataArray>
    </FieldData>
    <Piece NumberOfPoints="283" NumberOfCells="283">
      <Points>
        <DataArray type="Float32" NumberOfComponents="3" format="ascii">
 1.2317418211 0.1927934492 -1.0999663228 1.3477430517 0.1298324680 -1.0600954752 1.2835060978 0.1172909225 -1.2003520032 1.3598290109 0.1264566703 -1.0764253351 1.4131100724 0.0923136031 -1.2204102695 1.4091287226 0.3420204157 -1.0723944809 1.4209448847 0.3362421498 -1.0790499122 1.4272012320 0.4250742640 -1.0945473113 1.5219181939 0.1605843544 -1.2661115027 1.5298595701 0.1671385804 -1.2666475393 1.4939172150 0.4347008403 -1.1854326370 1.4803655675 0.3620268234 -1.3571241907 1.4907370478 0.3589558954 -1.3660919963 1.5113171229 0.3740182733 -1.3752471220 1.6331234214 0.3642153679 -1.2388442677 1.6560695209 0.3485293772 -1.3326414143 1.8292995206 0.3180576991 -0.9628785440 1.8298750011 0.3131991154 -0.9712101762 1.9305129485 0.5059857656 -1.0438996527 1.9323957072 0.4962476582 -1.0637972994 1.9197597282 0.2746614307 -1.0838687607 1.9216617772 0.2877181563 -1.0925128630 1.8905950359 0.4512400946 -1.1682168538 1.8819122496 0.4338568779 -1.1529955214 1.0942269686 0.7851094443 -0.9765132803 1.0199154477 0.8852872503 -0.8337300842 1.0170352444 0.8872773523 -0.8223972495 1.0502823461 0.7091475532 -0.8898947169 1.1412917938 0.8056989406 -0.9408621800 1.0563913666 0.7047190762 -0.8897774745 1.1474957776 0.7973594436 -0.9448342990 1.0314779371 0.7834563571 -0.7665052118 1.0389283508 0.7772970376 -0.7685466914 1.4757777970 0.7348130659 -1.0415844570 1.4790546159 0.7419237722 -1.0411095600 1.5713185110 0.7306404823 -1.1056816975 1.4803999565 0.7182549626 -1.1595458412 1.4846692838 0.7218729031 -1.1629481921 1.4797729236 0.7236354316 -1.1665605461 1.3417170627 0.7462912272 -1.1182199300 1.5845674435 0.8328692290 -1.1646089519 1.5834100096 0.8441511705 -1.1589986743 1.4171504459 0.8292504798 -1.0905818673 1.4123123814 0.8301527346 -1.0962480085 1.4207157922 0.8340667067 -1.0960602054 1.4164217054 0.8351758999 -1.1020400374 1.4127162380 0.8367759444 -1.1087132214 1.2183819624 0.4495876296 -0.7344476834 1.2924923319 0.4457537717 -0.6425432346 1.1463908407 0.6341541127 -0.7616623202 1.1214007332 0.6614384806 -0.7101667158 1.1629193922 0.6353302699 -0.7788917523 1.3954533467 0.5257310669 -0.7122404055 1.2909822379 0.4307863470 -0.8569370841 1.4109215720 0.5347645671 -0.7254967923 1.2602687746 0.7581179306 -0.8353388703 1.4701151751 0.4969963094 -0.8287340271 1.2631620845 0.7687017689 -0.8327712379 1.4079330094 0.8826080228 -0.9290650491 1.7816728044 0.2959983702 -0.9755860594 1.7741279199 0.2820623798 -0.9742485977 1.4840211716 0.0453254133 -1.1661472311 1.5847893674 0.2140135389 -1.1343788402 1.6705537861 0.3476927166 -1.1156592062 1.6814635085 0.3550647040 -1.1135299857 1.5067931220 0.2900520079 -1.0230284321 1.5002996898 0.2894342084 -1.0141801673 1.5601055385 0.1973081037 -0.8928265514 1.4562591536 0.2354017339 -0.9324473669 1.0634344641 0.4251831579 -0.9617573010 1.0573783589 0.4206943410 -0.9515333442 1.0445835953 0.4273072685 -0.8546585985 1.0505016141 0.4414746991 -0.8454811165 1.0471646096 0.4540827920 -0.8350756282 1.0529002545 0.4633607101 -0.8296607695 1.0495898650 0.4723545525 -0.8219112687 1.0551838023 0.4794473977 -0.8181730065 1.0519249226 0.4870808145 -0.8114265303 1.0509001919 0.5081010024 -0.7952179263 1.0236571405 0.5899798253 -0.8830787233 1.0207880684 0.5937291509 -0.8769479635 1.0255966759 0.5985631046 -0.8785202328 1.0724075401 0.6421875135 -0.7483092752 1.0688379604 0.6505855956 -0.7574305757 1.1963635636 0.2798897425 -0.8642948932 1.1917086932 0.2715961087 -0.8610957290 1.2021877765 0.2801632770 -0.8675103001 1.1854459445 0.2660519277 -0.8572274912 1.1978672763 0.2705090887 -0.8643777649 1.2076225709 0.2822687007 -0.8706536234 1.1923140282 0.2638041492 -0.8607981352 1.2034529921 0.2709244427 -0.8674777568 1.2129103325 0.2863368638 -0.8738695788 1.2183127646 0.2927709625 -0.8773288012 1.2241679489 0.3023786716 -0.8812653517 1.0725972960 0.2981938247 -0.7296530428 1.2310425225 0.3002485318 -0.8848778381 1.2879603015 0.3041070698 -0.8206602317 1.0997930104 0.2233910279 -0.7202927095 1.0544208727 0.1484365136 -0.7467194603 1.0672195066 0.1242720116 -0.7543347966 1.1400061674 0.0396494373 -0.7334331570 1.2743525720 0.1053133055 -0.7894881987 1.2879470133 0.1237598808 -0.7980647676 1.2942738011 0.1333414866 -0.8021100876 1.3014982125 0.1377023016 -0.8064186302 1.7573508295 0.0743039205 -1.1265238863 1.8224820101 0.1028644486 -0.9339777100 1.3443364393 0.2269362325 -0.7488474539 1.2976097015 0.3068676082 -0.7567890251 1.6979064211 0.6945093484 -0.8826165243 1.6979845266 0.7054963263 -0.8808269517 1.6521184221 0.6155866512 -1.0347359229 1.7496694564 0.6701395967 -1.0158988723 1.7474051339 0.6727208569 -1.0220073933 1.6783969852 0.7459453281 -1.0412088211 1.4226738102 0.4946046515 -1.0704555280 1.4965010580 0.4964550266 -1.0677351839 1.5015053825 0.5158415581 -1.0633959846 1.5105940586 0.5077411033 -1.0723992453 1.4036071473 0.5468582526 -1.2091448085 1.4076098341 0.5608334436 -1.2101355053 1.4099058036 0.5741476395 -1.2093936179 1.4166251674 0.5578259444 -1.2198951187 1.4106124356 0.5871155198 -1.2070921870 1.4190039438 0.5710033714 -1.2190708035 1.4199243745 0.5837906786 -1.2168607866 1.4194524341 0.5965088737 -1.2132960961 1.4277119743 0.5799759455 -1.2256503622 1.4277555430 0.5924618126 -1.2223587606 1.5867663246 0.6334167671 -1.1440494936 1.5957291519 0.6355197653 -1.1499843141 1.6405031176 0.4392294616 -1.2203640367 1.6046733610 0.6376215125 -1.1559115676 1.6489659591 0.4496106639 -1.2231331737 1.5137864028 0.7408365939 -1.2454654253 1.6570164253 0.4596429373 -1.2258530567 1.6139463520 0.6398760842 -1.1621067242 1.5222123854 0.7379563954 -1.2555068711 1.6648207118 0.4694000070 -1.2286446889 1.6725494331 0.4789730376 -1.2316349950 1.6239756752 0.6424739597 -1.1689075975 1.6353951929 0.6456995583 -1.1768123182 1.5953734191 0.7460087075 -1.2582151027 1.6872254940 0.5303598254 -1.3305571048 1.6021988817 0.6081111733 -1.3665581230 1.6954052521 0.5374472274 -1.3255608942 1.6166239240 0.6197491820 -1.3784113978 1.7551635198 0.6510257464 -1.2652771984 1.3334287017 0.5997890476 -1.2307840492 1.3376878071 0.6002015524 -1.2397993499 1.2535829100 0.7393819435 -1.1645094159 1.3387711265 0.6093184677 -1.2339113728 1.3399041354 0.6172893952 -1.2286488246 1.2620867064 0.7391616829 -1.1681107768 1.3433761529 0.6105024395 -1.2429837251 1.3441049838 0.6188474193 -1.2371760264 1.2700833138 0.7390871579 -1.1716269858 1.3449737683 0.6262695007 -1.2320486955 1.2667128100 0.7488352114 -1.1763202271 1.3489498696 0.6212151051 -1.2462005549 1.2777030482 0.7392829112 -1.1752042393 1.3496595768 0.6289108264 -1.2408466673 1.2751167394 0.7487531510 -1.1802266734 1.2851064280 0.7398768409 -1.1790294505 1.3505018330 0.6360027693 -1.2361236538 1.2833553849 0.7490576172 -1.1844176347 1.2925209746 0.7409939000 -1.1833066500 1.3555892765 0.6402462477 -1.2451376313 1.2916505655 0.7498729828 -1.1891446225 1.3568076599 0.6473834647 -1.2413087931 1.3002195409 0.7428460112 -1.1883459735 1.3085926355 0.7456939065 -1.1946196754 1.4320647583 0.1344346588 -0.8201189910 1.4202277294 0.0436568537 -0.7506709091 1.2474029204 0.1491059215 -0.6993683959 1.3254548520 0.0912687039 -0.6796957775 1.2439327598 0.0500509703 -0.6570657379 1.0972154155 0.1339631974 -0.9894030631 1.1861526268 0.1546022269 -1.0433531051 1.1894905102 0.1520941596 -1.0438569691 1.1930199134 0.1550345118 -1.0427200959 1.3313028707 0.4641589341 -1.0437853703 1.3275601953 0.4545382618 -1.0411584718 1.4416892849 0.3684766798 -1.0145409939 1.4397098448 0.3648484188 -1.0103147988 1.5696858015 0.5489276009 -1.4049439668 1.5618438276 0.5537859925 -1.4012592699 1.6239594451 0.0503429500 -1.1797137551 1.5984731016 0.0646705139 -1.1385818781 1.6086628415 0.0690052172 -1.1378546219 1.6019167925 0.0711154811 -1.1341702519 1.6985721688 0.0957624076 -1.1917488472 1.7076651290 0.1088308409 -1.1912624989 1.5746414352 0.1688488055 -1.2343354015 1.5796818376 0.1724969642 -1.2346877145 1.8344202459 0.5731096667 -1.2180956484 1.7941965822 0.5760970725 -1.1299738576 1.7957063645 0.4483678307 -1.1890364127 1.7909594018 0.4459814484 -1.1843393456 1.7904662999 0.4409079796 -1.1884953029 1.7861696995 0.4389330827 -1.1839118606 1.7404227855 0.3526629811 -1.2458563108 1.7202813873 0.6276025793 -1.1143464364 1.6184658264 0.5836460611 -1.0540829660 1.6107258486 0.5883375358 -1.0488793116 1.1342336006 0.8873087602 -0.7462351137 1.1409657072 0.8864765230 -0.7420427577 1.0745428185 0.2629701348 -0.9685916039 1.1623686306 0.2536442624 -1.0598993227 1.1835041746 0.1487560413 -0.6582750587 1.1867074059 0.1543582407 -0.6610009437 1.2217283703 0.1852815717 -0.6796351668 1.2121441802 0.9169214774 -0.7867841066 1.4839235878 0.1526550249 -0.8499886099 1.7478548077 0.1363921902 -1.3074548480 1.3382940313 0.7715390080 -1.1880112548 1.3481886930 0.7790848020 -1.1959140187 1.3206762556 0.8999923939 -1.2243944306 1.3061359616 0.9103753488 -1.2245194471 1.5698804684 0.7742765254 -0.7753229790 1.5582044846 0.7815616022 -0.6993355818 1.3210099980 0.9050500037 -1.0889337463 1.0760353425 0.0462105705 -0.9656079545 1.3776414027 0.8358971616 -0.6424131976 1.2495741042 0.7849931075 -0.9909084441 1.3126423335 0.9089173394 -0.9643761958 1.3223093340 0.9088671152 -0.9757945151 1.2945376926 0.8849086708 -0.9921812238 0.9939556570 0.2012858284 -0.8881314769 0.9880340285 0.1951675373 -0.8884866146 1.0634104425 0.1203507210 -0.9522362291 1.6710900077 0.8782068155 -1.1701037986 1.6628631868 0.8820336090 -1.1620879305 1.7847875020 0.6362969405 -1.0565546903 1.7878722840 0.6399117931 -1.0589931296 1.7845853279 0.6421429380 -1.0621507703 1.7878166974 0.6464726054 -1.0651986864 1.8029349336 0.3446687270 -1.1624916559 1.2079667265 0.1853143934 -0.6562236822 1.6169524886 0.0375722379 -1.0643884759 1.6187842047 0.0316232301 -1.0705272943 1.7228135887 0.0063401609 -1.2187673422 1.7307868895 -0.0038700323 -1.1697727316 1.7285210794 -0.0001183343 -1.1606007168 1.1891385312 0.1250908033 -1.1080581473 1.2571390030 0.2994813134 -1.0696511548 1.6905494316 0.8272082604 -1.2779726638 1.6142416446 0.8642273809 -1.2649878653 1.6125716807 0.8668950901 -1.2610491379 1.6109509759 0.8696529104 -1.2570267697 1.6142874203 0.8729168784 -1.2558694472 1.6126900897 0.8762247494 -1.2513013411 1.0173412292 0.1870568101 -0.8662026687 1.2653481847 0.6186585264 -0.5236870760 1.5892957604 0.0794167699 -1.4263703915 1.5969117681 0.0903307364 -1.4187301217 1.5985043624 0.0957022619 -1.4137175317 1.6076933276 0.1060658111 -1.4075286840 1.5968477077 0.0281831563 -0.9969794403 1.5856322999 0.0273003957 -0.9909743520 1.6184545683 0.0324722081 -1.0060550563 1.5059800436 0.0474935450 -0.9727091209 1.1544150983 0.4733165511 -1.0586878883 1.0727796339 0.6182043190 -0.9441843431 1.0637784039 0.6059154498 -0.9459432617 1.2185605163 0.6410646677 -0.9675199180 1.2052825743 0.5065279542 -1.0482012848 1.2929761311 0.4671519117 -1.1538322353 1.2670797421 0.4520208895 -0.6006689199 1.1812612474 0.3260818053 -0.6514837397 1.1868515206 0.3166657933 -0.6530621721 1.4132438544 0.7984691721 -0.6775939164 1.4651248901 0.0439739226 -0.7602956656 1.4435941137 0.0216713056 -0.7013879653 1.4437309607 0.0235139672 -0.6979916367 1.4437381381 0.0251426636 -0.6945439384 1.1001272181 0.3787518974 -0.7147404948 1.0967441283 0.4309856929 -0.7656261595 1.0901183722 0.4286826750 -0.7634314738 1.5873347888 -0.0253925164 -0.8503656562 1.3780285507 0.8951309113 -1.0184084607 1.3709604706 0.8894084857 -1.0176966378
        </DataArray>
      </Points>
      <Cells>
        <DataArray type="Int32" Name="connectivity" format="ascii">
 0 1 2 3 4 5 6 7 8 9 10 11 12 13 14 15 16 17 18 19 20 21 22 23 24 25 26 27 28 29 30 31 32 33 34 35 36 37 38 39 40 41 42 43 44 45 46 47 48 49 50 51 52 53 54 55 56 57 58 59 60 61 62 63 64 65 66 67 68 69 70 71 72 73 74 75 76 77 78 79 80 81 82 83 84 85 86 87 88 89 90 91 92 93 94 95 96 97 98 99 100 101 102 103 104 105 106 107 108 109 110 111 112 113 114 115 116 117 118 119 120 121 122 123 124 125 126 127 128 129 130 131 132 133 134 135 136 137 138 139 140 141 142 143 144 145 146 147 148 149 150 151 152 153 154 155 156 157 158 159 160 161 162 163 164 165 166 167 168 169 170 171 172 173 174 175 176 177 178 179 180 181 182 183 184 185 186 187 188 189 190 191 192 193 194 195 196 197 198 199 200 201 202 203 204 205 206 207 208 209 210 211 212 213 214 215 216 217 218 219 220 221 222 223 224 225 226 227 228 229 230 231 232 233 234 235 236 237 238 239 240 241 242 243 244 245 246 247 248 249 250 251 252 253 254 255 256 257 258 259 260 261 262 263 264 265 266 267 268 269 270 271 272 273 274 275 276 277 278 279 280 281 282
        </DataArray>
        <DataArray type="Int32" Name="offsets" format="ascii">
 1 2 3 4 5 6 7 8 9 10 11 12 13 14 15 16 17 18 19 20 21 22 23 24 25 26 27 28 29 30 31 32 33 34 35 36 37 38 39 40 41 42 43 44 45 46 47 48 49 50 51 52 53 54 55 56 57 58 59 60 61 62 63 64 65 66 67 68 69 70 71 72 73 74 75 76 77 78 79 80 81 82 83 84 85 86 87 88 89 90 91 92 93 94 95 96 97 98 99 100 101 102 103 104 105 106 107 108 109 110 111 112 113 114 115 116 117 118 119 120 121 122 123 124 125 126 127 128 129 130 131 132 133 134 135 136 137 138 139 140 141 142 143 144 145 146 147 148 149 150 151 152 153 154 155 156 157 158 159 160 161 162 163 164 165 166 167 168 169 170 171 172 173 174 175 176 177 178 179 180 181 182 183 184 185 186 187 188 189 190 191 192 193 194 195 196 197 198 199 200 201 202 203 204 205 206 207 208 209 210 211 212 213 214 215 216 217 218 219 220 221 222 223 224 225 226 227 228 229 230 231 232 233 234 235 236 237 238 239 240 241 242 243 244 245 246 247 248 249 250 251 252 253 254 255 256 257 258 259 260 261 262 263 264 265 266 267 268 269 270 271 272 273 274 275 276 277 278 279 280 281 282 283
        </DataArray>
        <DataArray type="UInt8" Name="types" format="ascii">
 1 1 1 1 1 1 1 1 1 1 1 1 1 1 1 1 1 1 1 1 1 1 1 1 1 1 1 1 1 1 1 1 1 1 1 1 1 1 1 1 1 1 1 1 1 1 1 1 1 1 1 1 1 1 1 1 1 1 1 1 1 1 1 1 1 1 1 1 1 1 1 1 1 1 1 1 1 1 1 1 1 1 1 1 1 1 1 1 1 1 1 1 1 1 1 1 1 1 1 1 1 1 1 1 1 1 1 1 1 1 1 1 1 1 1 1 1 1 1 1 1 1 1 1 1 1 1 1 1 1 1 1 1 1 1 1 1 1 1 1 1 1 1 1 1 1 1 1 1 1 1 1 1 1 1 1 1 1 1 1 1 1 1 1 1 1 1 1 1 1 1 1 1 1 1 1 1 1 1 1 1 1 1 1 1 1 1 1 1 1 1 1 1 1 1 1 1 1 1 1 1 1 1 1 1 1 1 1 1 1 1 1 1 1 1 1 1 1 1 1 1 1 1 1 1 1 1 1 1 1 1 1 1 1 1 1 1 1 1 1 1 1 1 1 1 1 1 1 1 1 1 1 1 1 1 1 1 1 1 1 1 1 1 1 1 1 1 1 1 1 1 1 1 1 1 1 1 1 1 1 1 1 1
        </DataArray>
      </Cells>
      <PointData Scalars="overlap">
        <DataArray type="Float32" Name="overlap" format="ascii">
 0.0001116905 0.0000315701 0.0001070338 0.0002047314 0.0000340818 0.0000996894 0.0000623342 0.0001514981 0.0000577822 0.0002523898 0.0003161780 0.0000362684 0.0000144743 0.0003165510 0.0001914219 0.0000873909 0.0004081324 0.0002095933 0.0002152957 0.0000068958 0.0003133583 0.0002673356 0.0001513975 0.0005058105 0.0000713444 0.0000678098 0.0002218233 0.0002400571 0.0000287347 0.0000708109 0.0001020751 0.0000577337 0.0000466317 0.0002060340 0.0000241944 0.0003613245 0.0001751756 0.0005340145 0.0000021328 0.0004468959 0.0001434185 0.0000457818 0.0000702825 0.0001209916 0.0001425490 0.0003131547 0.0000947432 0.0000304173 0.0000212171 0.0003999156 0.0001070175 0.0002088522 0.0000930619 0.0004145941 0.0000312968 0.0001633905 0.0000255496 0.0000159434 0.0003385053 0.0001859269 0.0000508604 0.0000720326 0.0002181304 0.0000615916 0.0001792951 0.0000160064 0.0002330993 0.0000276787 0.0001534215 0.0001208257 0.0000457507 0.0000127431 0.0000088422 0.0000435666 0.0000513567 0.0000525467 0.0000096848 0.0000382193 0.0000009323 0.0000009290 0.0001015228 0.0000760985 0.0000048152 0.0000367422 0.0000651934 0.0000478964 0.0000906760 0.0000197104 0.0000471611 0.0001075948 0.0000020411 0.0000128055 0.0001261860 0.0001432966 0.0001323283 0.0000654116 0.0001526683 0.0000138990 0.0000302250 0.0000135638 0.0000421731 0.0000209496 0.0000127429 0.0000939429 0.0000458065 0.0000180713 0.0000609757 0.0001359238 0.0000323372 0.0000231362 0.0002080258 0.0000095440 0.0000308563 0.0000425936 0.0001619321 0.0003068330 0.0002906528 0.0004621768 0.0003450710 0.0002360158 0.0004775207 0.0009190355 0.0008576568 0.0000425923 0.0001832760 0.0006872792 0.0007592703 0.0001958605 0.0000261673 0.0003692411 0.0000337037 0.0000473593 0.0000025253 0.0000514228 0.0003134194 0.0002801523 0.0004113685 0.0000515582 0.0006041995 0.0003185682 0.0000446835 0.0000499721 0.0000372461 0.0000113794 0.0000658363 0.0000209833 0.0002054514 0.0002672923 0.0002148705 0.0004242010 0.0001532615 0.0000284995 0.0008242931 0.0002582429 0.0005897290 0.0005540308 0.0010777090 0.0008006575 0.0005077228 0.0001293468 0.0004286168 0.0008140237 0.0010455892 0.0006417629 0.0007495130 0.0006149345 0.0007192654 0.0006539177 0.0003192040 0.0004315793 0.0002009066 0.0004897959 0.0000589063 0.0000325559 0.0001628881 0.0000869067 0.0000268277 0.0000547796 0.0000473363 0.0000341491 0.0000085251 0.0000152183 0.0000142857 0.0000450293 0.0000590367 0.0000009031 0.0001418099 0.0001062738 0.0000777448 0.0000310193 0.0000441876 0.0000977024 0.0000596775 0.0000305074 0.0002075061 0.0000333828 0.0000452268 0.0000278841 0.0000615640 0.0001963026 0.0001688858 0.0001969955 0.0001295488 0.0000438075 0.0000093056 0.0000190553 0.0000487089 0.0000541754 0.0002663998 0.0001509688 0.0000359319 0.0000192353 0.0000353466 0.0000394054 0.0000275829 0.0000991333 0.0007802778 0.0005265525 0.0002325598 0.0004049014 0.0000713533 0.0000214638 0.0003429056 0.0001705735 0.0001443090 0.0001181087 0.0000733392 0.0000765699 0.0001449026 0.0002029374 0.0001348545 0.0002551232 0.0001706209 0.0000576560 0.0000078303 0.0000028179 0.0000171839 0.0000171992 0.0000449140 0.0000064488 0.0000663918 0.0000143113 0.0000255917 0.0000254940 0.0000678808 0.0001947055 0.0000019452 0.0000498221 0.0000157038 0.0000250976 0.0000019360 0.0000166363 0.0000074266 0.0000019993 0.0000006594 0.0000096526 0.0000466520 0.0000130239 0.0000062848 0.0000273816 0.0000143349 0.0000198205 0.0000162517 0.0000428800 0.0000704198 0.0000445156 0.0000803341 0.0000023369 0.0000481768 0.0000306225 0.0000024766 0.0000244441 0.0000207985 0.0000002787 0.0000051191 0.0000605965 0.0000733045 0.0000133287 0.0000160611 0.0000134977 0.0000503207 0.0000149796 0.0000633369
        </DataArray>
        <DataArray type="Float32" Name="contact normal" NumberOfComponents="3" format="ascii">