<?xml version="1.0"?>
<VTKFile type="UnstructuredGrid" version="0.1" byte_order="LittleEndian">
  <UnstructuredGrid>
    <FieldData>
      <DataArray type="Float32" Name="TIME"  NumberOfTuples="1" format="ascii"> 1.1000000000 </DataArray>
      <DataArray type="Int32"   Name="STEP"  NumberOfTuples="1" format="ascii"> 110000 </DataArray>
    </FieldData>
    <Piece NumberOfPoints="264" NumberOfCells="264">
      <Points>
        <DataArray type="Float32" NumberOfComponents="3" format="ascii">
 1.8983138297 0.1893351395 -1.7729123685 2.0117753130 0.1127978688 -1.7609372903 1.9437172125 0.1205809620 -1.8809022887 2.0718564287 0.0988760956 -1.9114428467 2.0753844586 0.3396060929 -1.7492187078 2.0867650289 0.3344116575 -1.7570127422 2.0908109890 0.4240850424 -1.7677171306 2.1763065407 0.1714011942 -1.9606261233 2.1841092897 0.1781030750 -1.9613365481 2.1507733995 0.4399613206 -1.8623633002 2.2244419120 0.2324845104 -2.0457093043 2.1259320269 0.3770226649 -2.0366164350 2.1356775650 0.3746371588 -2.0464527274 2.1553734665 0.3905277705 -2.0561349068 2.2866697877 0.3749246578 -1.9294480034 2.3030829957 0.3650020204 -2.0253591684 2.5539747863 0.2580278654 -1.5816224547 2.5026468597 0.3162252287 -1.6709480020 2.5026749635 0.3118632750 -1.6795685236 2.5955275212 0.5100746885 -1.7478595165 2.5960085973 0.5015143518 -1.7683832179 2.5846501681 0.2812911373 -1.8004209663 2.5857820264 0.2948432320 -1.8083975430 2.5473937620 0.4619455578 -1.8719982268 2.5400249609 0.4435829305 -1.8572438813 1.7491838933 0.7774529048 -1.6019402012 1.7526931659 0.7695083643 -1.6074092753 1.7628388634 0.7708717825 -1.6056671086 1.6975763106 0.8618849375 -1.4526911309 1.6954779520 0.8632807480 -1.4411005858 1.7072511732 0.8643146488 -1.4442732885 1.7263476564 0.6896321607 -1.5204149833 1.7154044323 0.7568561571 -1.3921350865 1.7227764129 0.7509513636 -1.3950359143 2.1391998385 0.7310692325 -1.7002458916 2.2300788739 0.7320971999 -1.7709872123 2.1357104966 0.7213854304 -1.8190284285 2.1396944931 0.7252523251 -1.8225112135 2.1345282647 0.7271476481 -1.8256586174 1.9998161895 0.7446896317 -1.7667437286 2.2378511777 0.8378126371 -1.8246575559 2.0761054152 0.8271569968 -1.7395336978 2.0708709951 0.8283046009 -1.7447882377 2.0792226737 0.8323361300 -1.7449582055 2.0745053325 0.8337166087 -1.7505504281 2.0703208990 0.8356365024 -1.7568453963 1.9886092386 0.4166581058 -1.3067877967 1.8320139788 0.6092068820 -1.4041251355 2.0665291036 0.4880907508 -1.3611228120 2.0740775348 0.4876836188 -1.3709550992 2.0790338256 0.5035189456 -1.3701780849 2.0853386333 0.5021450358 -1.3787981029 1.9719219571 0.4139404184 -1.5210740723 1.9401975857 0.7043168858 -1.2646080804 1.9388604203 0.7390342672 -1.4782570822 2.1517963373 0.4813609521 -1.5017637628 2.0075196140 0.8279647153 -1.3690418233 2.1484660042 0.7796144871 -1.4097027468 2.1602253728 0.7974046469 -1.4212309825 2.0779183159 0.8710746033 -1.5748055401 2.4544465967 0.2941682178 -1.6813086662 2.2479293394 0.2182549003 -1.8307004605 2.3420808203 0.1229654851 -1.7172321139 2.3331726682 0.3520443175 -1.8101924911 2.3440460708 0.3594869567 -1.8084459353 2.1711923459 0.2852810521 -1.7006915893 2.2405762897 0.1873049153 -1.5893989214 2.1337230805 0.2258943084 -1.6193498819 2.1407504786 0.3571861350 -1.4682555391 1.7375424622 0.4107130010 -1.6099268449 1.7322840193 0.4055678825 -1.5995718376 1.7263275307 0.4063966583 -1.5018198241 1.7327095584 0.4201079290 -1.4922680735 1.7299661713 0.4320430378 -1.4809366621 1.7359586137 0.4410866835 -1.4754048077 1.7330972118 0.4495666730 -1.4669310121 1.7388550681 0.4565247611 -1.4631883615 1.7359911848 0.4637034534 -1.4557945214 1.7387630687 0.4764460150 -1.4458410650 1.7358643460 0.4837388549 -1.4383536561 1.6989772635 0.5734121341 -1.5126216886 1.7036014141 0.5784070832 -1.5142435370 1.7590076980 0.6152305404 -1.3853205024 1.7547018187 0.6240887127 -1.3936624512 1.8210390255 0.3456313082 -1.4334636371 1.8787518282 0.2622149435 -1.5306416785 1.8744378498 0.2536769875 -1.5276118618 1.8843289311 0.2627670262 -1.5342369970 1.8685341552 0.2478190872 -1.5236426308 1.8803603404 0.2528801893 -1.5313762631 1.8895003670 0.2651372712 -1.5376264716 1.8857055360 0.2535636429 -1.5348318665 1.8944960089 0.2694685343 -1.5409636198 1.8995598259 0.2761773285 -1.5444132579 1.9050025251 0.2860887995 -1.5481851583 1.7646424612 0.2707535499 -1.3868046948 1.9116283214 0.2842813130 -1.5523897875 1.9662936485 0.2776573082 -1.4872903036 1.9729073535 0.2853720689 -1.4922065972 1.9807419383 0.2821312459 -1.4961384893 1.7933359740 0.1959858107 -1.3837663961 1.7471198034 0.1219458173 -1.4112720059 1.7596463799 0.0984726150 -1.4211647505 1.8347459095 0.0139805034 -1.4103943419 1.9639668815 0.0849242022 -1.4718056345 1.9766936950 0.1040508076 -1.4802225517 1.9826005466 0.1139503462 -1.4841352812 1.9894478967 0.1186677764 -1.4886775920 2.4698169704 0.1593433735 -1.8380496541 2.5004155284 0.0997028297 -1.6543261456 2.3726951174 0.6853229775 -1.5599943634 2.3171812578 0.6143495178 -1.7127966059 2.4151338375 0.6693384366 -1.6977688797 2.4124023418 0.6722242438 -1.7035404323 2.4158346961 0.6784356091 -1.7016005483 2.3413080342 0.7452886697 -1.7136389745 2.0866372934 0.4922092937 -1.7394376389 2.1605447125 0.4951091161 -1.7417119304 2.1655657529 0.5142036099 -1.7366046774 2.1740819341 0.5067836989 -1.7466827940 2.0572728801 0.5520908345 -1.8732584423 2.0609453832 0.5661862165 -1.8737867324 2.0630749124 0.5794792841 -1.8725077571 2.0715344203 0.5770329163 -1.8829032710 2.0723918804 0.5896995830 -1.8800998968 2.2436358318 0.6375279914 -1.8160369924 2.2521354118 0.6401009145 -1.8224490132 2.2606169599 0.6426718656 -1.8288522957 2.3022381619 0.4594688759 -1.9097604331 2.3099579292 0.4697656634 -1.9124496210 2.2694059535 0.6454156373 -1.8355363524 2.3174304768 0.4797881145 -1.9152091799 2.1704627824 0.7328541541 -1.9267964261 2.2789029901 0.6485480763 -1.8428563296 2.1778918746 0.7312699830 -1.9363955868 2.2897021126 0.6523910188 -1.8513359870 2.2429671451 0.7565785365 -1.9237887582 2.2437068410 0.6252326368 -2.0401923027 2.3403649745 0.5537400457 -2.0099458027 2.2571541925 0.6377525053 -2.0522965437 2.4029373802 0.6645748287 -1.9474287572 1.9142855839 0.7400056382 -1.8095274317 1.9221360906 0.7401743742 -1.8133451407 2.0021759232 0.6458126607 -1.8985419641 2.0035922115 0.6526709596 -1.8942978854 2.1187541250 0.1183228947 -1.5116763794 2.1129730165 0.0235306426 -1.4469788054 1.9429525564 0.1230610641 -1.3776315051 2.0229009983 0.0654615292 -1.3668708090 2.0156789928 0.0687783439 -1.3623595830 1.9436958781 0.0217058817 -1.3410459213 1.9349523134 0.0297218779 -1.3503320515 2.6196306640 0.4075926302 -1.7543379311 1.7727480741 0.1218287232 -1.6563853114 1.8341554972 0.0589524804 -1.6879132851 1.8570128922 0.1474035452 -1.7154970619 1.8603480654 0.1449988149 -1.7163783626 1.8638991439 0.1479464230 -1.7153310365 1.8673423908 0.1455821316 -1.7161684616 1.8677698584 0.1510030842 -1.7142462458 1.8714025281 0.1486629091 -1.7151137771 1.8892671045 0.1738979505 -1.6489584146 1.8982437359 0.1791073631 -1.6508543359 1.7164662320 0.8879748703 -1.3621158709 1.9983151421 0.4586048184 -1.7080966088 1.9948828903 0.4487984262 -1.7057745976 2.2093744137 0.5677847629 -2.0796128516 2.2017402588 0.5723250426 -2.0751661104 2.2855716218 0.0581037206 -1.8881830432 2.2629078031 0.0696336398 -1.8445887459 2.2730704741 0.0740834807 -1.8443272355 2.2665785792 0.0758690643 -1.8400606251 2.3585883142 0.1053495825 -1.9027582051 2.3675353373 0.1185127186 -1.9021491706 2.2310503412 0.1787421380 -1.9321731434 2.2360074541 0.1824869259 -1.9326665341 2.1705593810 0.1249391004 -1.4021745833 2.4862893663 0.5855629123 -1.9108319493 2.4524453999 0.5828376881 -1.8200622844 2.4513320299 0.4587244730 -1.8864004727 2.4469589888 0.4559951830 -1.8815406158 2.4462366460 0.4511632037 -1.8859273182 2.4423038356 0.4488621425 -1.8811770788 2.3964253070 0.3724668885 -1.9535168144 2.3933389188 0.3654890370 -1.9446663208 1.8496763913 0.8585857919 -1.6890578397 2.3792414360 0.6320558294 -1.7963159378 2.2825075147 0.5830805868 -1.7317175592 2.2751028221 0.5873420211 -1.7257157164 1.8177320598 0.8607691546 -1.3733674118 1.8247542454 0.8598073953 -1.3697131347 1.7499147567 0.2493226594 -1.6269591299 1.8309876264 0.2466645324 -1.7247817649 1.7885917731 0.3894674073 -1.6669745335 1.8821498938 0.1192892043 -1.3322605319 1.9183026957 0.1576126773 -1.3540725786 2.1486798501 0.0210241916 -1.6143759431 2.2353297677 0.0091149848 -1.6425177351 2.0294798297 0.8564123417 -1.2951695436 2.2610214248 0.2024433186 -1.4994397014 2.2788891616 0.1339209187 -1.5312082119 2.2760543148 0.1285334537 -1.5323439856 2.1681043015 0.1390164228 -1.5440672294 1.9827747144 0.7871610595 -1.8275981723 1.9574883359 0.9033847442 -1.8273107671 2.2515704532 0.7567416038 -1.4394801749 2.2452718515 0.7595021270 -1.3625639078 1.9166150808 0.7745263475 -1.6311269958 1.9799208815 0.8977392021 -1.6019086257 1.9887485503 0.8985019351 -1.6139633203 1.9601465562 0.8750848596 -1.6297313440 1.6758207206 0.1817840298 -1.5448223690 1.7415017831 0.1057967438 -1.6182580398 2.3232381365 0.8846960060 -1.8336798380 2.4103716563 0.8512957682 -1.7804278858 2.4475765139 0.6385524560 -1.7427550344 2.4504350581 0.6423473555 -1.7451955868 2.4469042912 0.6446972875 -1.7479820380 2.4498568245 0.6492422695 -1.7509991882 2.4464173728 0.6522952431 -1.7543614611 2.4617008556 0.3538007484 -1.8664939963 2.2869238683 0.0386215266 -1.7735900190 2.2883872315 0.0330650142 -1.7801787978 2.3819350872 0.0179927081 -1.9365776827 2.3801234010 0.0109339453 -1.9301062282 2.3934582822 0.0051170068 -1.8889393558 2.3917998481 0.0082982709 -1.8794278666 1.8625972005 0.1209671355 -1.7738949966 1.9244896543 0.2945168732 -1.7382842122 2.3356270370 0.8402436297 -1.9453043491 2.3359100982 0.8488442968 -1.9449114746 2.2599442110 0.8752598289 -1.9250468473 2.2585271788 0.8776680205 -1.9208502314 2.2605336061 0.8834090858 -1.9154607120 2.2592260309 0.8864214451 -1.9106050915 1.7011868494 0.1667417985 -1.5253233600 2.1247643202 0.4598028142 -1.2879429376 1.9669794297 0.5822454251 -1.1760209038 2.2330861566 0.1005637941 -2.1296341891 2.2410905580 0.1111548758 -2.1219366911 2.2429698931 0.1162601326 -2.1167482547 2.2453942611 0.1202749348 -2.1133591666 2.2524458358 0.1264105065 -2.1106394507 2.2717951056 0.0250609479 -1.7055920005 2.2610486092 0.0236491971 -1.6988733605 2.2926449813 0.0302228901 -1.7159006013 2.3005830465 0.2777175278 -2.0965001353 2.6845888784 0.3066781869 -1.6832997493 1.7456345997 0.6024690191 -1.5818000688 1.7366756929 0.5901626049 -1.5836311373 1.8891212909 0.6290044190 -1.6139433919 1.8717590974 0.4991070378 -1.7012160001 1.9522843114 0.4674042756 -1.8148103674 1.9659681904 0.4199600243 -1.2629860933 2.1021073380 0.7725391933 -1.3297191345 2.1570516036 0.0251403639 -1.4597406310 2.1424739607 0.0040184068 -1.3993658062 2.1404423584 0.0007716459 -1.3973871360 2.1406670645 0.0022044035 -1.3938607127 1.7845935783 0.4058053521 -1.4166370411 1.7781692913 0.4032735522 -1.4141183570 2.2734130801 -0.0369866187 -1.5620684322 2.0414785880 0.8881526636 -1.6611079301 2.0345495234 0.8822840750 -1.6602390553
        </DataArray>
      </Points>
      <Cells>
        <DataArray type="Int32" Name="connectivity" format="ascii">
 0 1 2 3 4 5 6 7 8 9 10 11 12 13 14 15 16 17 18 19 20 21 22 23 24 25 26 27 28 29 30 31 32 33 34 35 36 37 38 39 40 41 42 43 44 45 46 47 48 49 50 51 52 53 54 55 56 57 58 59 60 61 62 63 64 65 66 67 68 69 70 71 72 73 74 75 76 77 78 79 80 81 82 83 84 85 86 87 88 89 90 91 92 93 94 95 96 97 98 99 100 101 102 103 104 105 106 107 108 109 110 111 112 113 114 115 116 117 118 119 120 121 122 123 124 125 126 127 128 129 130 131 132 133 134 135 136 137 138 139 140 141 142 143 144 145 146 147 148 149 150 151 152 153 154 155 156 157 158 159 160 161 162 163 164 165 166 167 168 169 170 171 172 173 174 175 176 177 178 179 180 181 182 183 184 185 186 187 188 189 190 191 192 193 194 195 196 197 198 199 200 201 202 203 204 205 206 207 208 209 210 211 212 213 214 215 216 217 218 219 220 221 222 223 224 225 226 227 228 229 230 231 232 233 234 235 236 237 238 239 240 241 242 243 244 245 246 247 248 249 250 251 252 253 254 255 256 257 258 259 260 261 262 263
        </DataArray>
        <DataArray type="Int32" Name="offsets" format="ascii">
 1 2 3 4 5 6 7 8 9 10 11 12 13 14 15 16 17 18 19 20 21 22 23 24 25 26 27 28 29 30 31 32 33 34 35 36 37 38 39 40 41 42 43 44 45 46 47 48 49 50 51 52 53 54 55 56 57 58 59 60 61 62 63 64 65 66 67 68 69 70 71 72 73 74 75 76 77 78 79 80 81 82 83 84 85 86 87 88 89 90 91 92 93 94 95 96 97 98 99 100 101 102 103 104 105 106 107 108 109 110 111 112 113 114 115 116 117 118 119 120 121 122 123 124 125 126 127 128 129 130 131 132 133 134 135 136 137 138 139 140 141 142 143 144 145 146 147 148 149 150 151 152 153 154 155 156 157 158 159 160 161 162 163 164 165 166 167 168 169 170 171 172 173 174 175 176 177 178 179 180 181 182 183 184 185 186 187 188 189 190 191 192 193 194 195 196 197 198 199 200 201 202 203 204 205 206 207 208 209 210 211 212 213 214 215 216 217 218 219 220 221 222 223 224 225 226 227 228 229 230 231 232 233 234 235 236 237 238 239 240 241 242 243 244 245 246 247 248 249 250 251 252 253 254 255 256 257 258 259 260 261 262 263 264
        </DataArray>
        <DataArray type="UInt8" Name="types" format="ascii">
 1 1 1 1 1 1 1 1 1 1 1 1 1 1 1 1 1 1 1 1 1 1 1 1 1 1 1 1 1 1 1 1 1 1 1 1 1 1 1 1 1 1 1 1 1 1 1 1 1 1 1 1 1 1 1 1 1 1 1 1 1 1 1 1 1 1 1 1 1 1 1 1 1 1 1 1 1 1 1 1 1 1 1 1 1 1 1 1 1 1 1 1 1 1 1 1 1 1 1 1 1 1 1 1 1 1 1 1 1 1 1 1 1 1 1 1 1 1 1 1 1 1 1 1 1 1 1 1 1 1 1 1 1 1 1 1 1 1 1 1 1 1 1 1 1 1 1 1 1 1 1 1 1 1 1 1 1 1 1 1 1 1 1 1 1 1 1 1 1 1 1 1 1 1 1 1 1 1 1 1 1 1 1 1 1 1 1 1 1 1 1 1 1 1 1 1 1 1 1 1 1 1 1 1 1 1 1 1 1 1 1 1 1 1 1 1 1 1 1 1 1 1 1 1 1 1 1 1 1 1 1 1 1 1 1 1 1 1 1 1 1 1 1 1 1 1 1 1 1 1 1 1 1 1 1 1 1 1 1 1 1 1 1 1
        </DataArray>
      </Cells>
      <PointData Scalars="overlap">
        <DataArray type="Float32" Name="overlap" format="ascii">
 0.0001375632 0.0005147707 0.0001575779 0.0000436973 0.0000711535 0.0000350266 0.0001223864 0.0000459227 0.0002398013 0.0003287509 0.0000379196 0.0000303708 0.0000143180 0.0003304337 0.0002163026 0.0001113996 0.0001495637 0.0003976072 0.0001981757 0.0002618837 0.0002029278 0.0002867802 0.0002143068 0.0001383112 0.0004673697 0.0000865609 0.0000641530 0.0000535663 0.0001004385 0.0001162801 0.0000422846 0.0003179147 0.0000828021 0.0000738953 0.0001125757 0.0002405940 0.0002338029 0.0005610738 0.0000580316 0.0001343942 0.0000412586 0.0001283102 0.0001751521 0.0002071287 0.0003736862 0.0001515283 0.0000629059 0.0001987908 0.0000416105 0.0000176291 0.0000186926 0.0000978234 0.0003104212 0.0001854871 0.0000410789 0.0000749435 0.0000004478 0.0000538503 0.0000594274 0.0001966372 0.0001544487 0.0001468407 0.0000104439 0.0000394911 0.0000001031 0.0001180909 0.0000787658 0.0001124352 0.0000208973 0.0000792827 0.0000527577 0.0000129873 0.0000070549 0.0000459220 0.0000521416 0.0000567824 0.0000177054 0.0000442248 0.0000072100 0.0000065989 0.0001046667 0.0000760310 0.0000315824 0.0000458221 0.0000059934 0.0000533484 0.0000401254 0.0000766875 0.0000157712 0.0000375546 0.0000910447 0.0000001411 0.0001065460 0.0001198519 0.0001040628 0.0000530978 0.0001223971 0.0000022510 0.0000457052 0.0000046013 0.0000404100 0.0000160063 0.0000618262 0.0000255182 0.0000241218 0.0001045278 0.0000564464 0.0000279008 0.0000147223 0.0001559185 0.0001867286 0.0000471582 0.0000617672 0.0001984088 0.0000349579 0.0002571785 0.0001852712 0.0002532891 0.0002075991 0.0001357782 0.0003252745 0.0005151400 0.0002571917 0.0001970335 0.0000559859 0.0000086970 0.0000292195 0.0000401858 0.0001307115 0.0002514654 0.0000474083 0.0001809741 0.0002536735 0.0000535195 0.0003239202 0.0000498479 0.0000206218 0.0000007742 0.0001357180 0.0003078202 0.0001595893 0.0001368185 0.0000734642 0.0000717066 0.0001998918 0.0000241461 0.0001455926 0.0000944279 0.0000029836 0.0000062013 0.0000821831 0.0000147452 0.0000211200 0.0000233723 0.0001453948 0.0000248940 0.0000202566 0.0000438216 0.0000532966 0.0000251586 0.0000299207 0.0000651834 0.0000265144 0.0000215640 0.0000217365 0.0000119405 0.0001194802 0.0000786447 0.0000633228 0.0000300419 0.0000397430 0.0000949876 0.0000393964 0.0000042565 0.0002028519 0.0000257373 0.0001526781 0.0000434472 0.0000337307 0.0000044810 0.0001555604 0.0001184036 0.0001528999 0.0001377516 0.0000042096 0.0000643227 0.0000533700 0.0000289956 0.0000450170 0.0000538435 0.0000593177 0.0002250496 0.0000774257 0.0001111724 0.0000342450 0.0000479428 0.0000034754 0.0000018092 0.0000083139 0.0000013496 0.0000422459 0.0000153690 0.0000309846 0.0000339595 0.0000931529 0.0000500677 0.0000347693 0.0000910600 0.0000515874 0.0000409004 0.0001280470 0.0000334893 0.0000765953 0.0001062126 0.0000312268 0.0000018458 0.0000005500 0.0000203362 0.0000247350 0.0000034064 0.0000423860 0.0000883958 0.0000329784 0.0000362250 0.0000134070 0.0000250667 0.0000639131 0.0000359042 0.0000237993 0.0000442615 0.0000313403 0.0000002391 0.0000140923 0.0000056223 0.0000006526 0.0000048153 0.0000604086 0.0000200570 0.0000531171 0.0000700798 0.0000300065 0.0000042486 0.0000010488 0.0000304106 0.0000103845 0.0000387234 0.0000567717 0.0000187716 0.0000553619 0.0000105664 0.0000289242 0.0000005163 0.0001357353 0.0000229052 0.0000053091 0.0000278312 0.0000145399 0.0000417111 0.0000768788 0.0000254363 0.0000313728 0.0000710506 0.0000046522 0.0000524869
        </DataArray>
        <DataArray type="Float32" Name="contact normal" NumberOfComponents="3" format="ascii">
 0.5901942998 -0.1248981504 -0.7975406827 -0.5162901852 0.7403420724 -0.4305090715 0.4209250531 0.8718299343 0.2504688910 -0.5692314223 0.7743199580 -0.2764130794 -0.6339498064 0.0544714332 -0.7714535021 -0.5308224869 -0.0042543888 -0.8474723521 0.2439439701 -0.7162034166 -0.6538684925 -0.7234808344 0.6775596947 -0.1322434963 -0.6757669332 0.7213122375 -0.1518147162 -0.3368815690 -0.9263594754 -0.1684307893 -0.4199783129 0.3984313115 0.8153960429 0.5178292394 -0.5406738544 0.6629665617 0.5006821689 -0.5652241943 0.6556210612 0.5604516422 -0.4771256040 0.6769380435 -0.6948806835 0.0050161795 -0.7191075536 -0.1809162514 -0.1596580578 0.9704527884 -0.9099505120 0.3445450317 -0.2308219809 0.9255560367 -0.2287463404 0.3016970910 0.9514370224 -0.2158668577 0.2194745819 -0.9865940063 -0.1551847647 -0.0504970845 -0.9813285838 -0.1750524394 -0.0796922462 -0.9581721488 0.1868041674 0.2168186715 -0.9102617398 0.4140253020 0.0025718589 0.9268373934 0.0088870098 0.3753577856 0.8965102635 -0.1097925636 0.4292026799 -0.1669106721 -0.6108928713 0.7739190703 -0.1436247623 -0.6049680139 0.7831893958 -0.0682694601 -0.5783884788 0.8128997776 0.1210376102 -0.9827685273 0.1396993867 0.1210726858 -0.9827627545 0.1397096025 0.1858931813 -0.9697275389 0.1583421151 0.3995848052 0.9163484586 -0.0252484822 0.1904583174 0.6019678161 -0.7754742921 0.2222425899 0.5663512262 -0.7936337441 -0.5414204918 -0.0780401411 -0.8371222058 -0.7501131868 0.6413510068 0.1612423426 -0.4615763192 0.6114622135 0.6426984231 -0.3991783086 0.6301049534 0.6660513686 -0.4353431200 0.6381856206 0.6349767566 0.8075624691 0.1680408511 0.5653362989 0.1192496169 -0.7384912285 0.6636341118 0.3076583932 -0.8163164857 -0.4888493718 0.3143807402 -0.8105104773 -0.4942039218 0.4107121039 -0.7535765474 -0.5132620723 0.3933593622 -0.7647978522 -0.5102476432 0.3812900987 -0.7723435254 -0.5080387184 0.0996011127 0.8397104224 -0.5338220910 0.6962745420 -0.4472123993 0.5614292761 -0.7606782958 0.2795840274 -0.5858338518 -0.7561078321 0.2587964895 -0.6011034214 -0.7541640107 0.3244279702 -0.5709493297 -0.7542129120 0.2905257784 -0.5888613211 0.3895014242 0.5025783644 0.7718183907 -0.1887202502 -0.3933709109 -0.8998021969 0.4412009830 -0.8974043588 0.0026663308 -0.8898690308 0.3587228550 -0.2818705755 0.1913050806 -0.5625351942 -0.8043360749 -0.6116368081 -0.1611149959 -0.7745594703 -0.4733537514 -0.1516238839 -0.8677248549 0.4030770408 -0.7627212136 0.5057521621 0.7803950238 -0.4064825853 0.4751373640 0.1409995120 0.5996581127 0.7877368123 -0.2502985171 0.8948701335 -0.3695376795 -0.3464515485 -0.7986360641 0.4920891806 0.7229971655 -0.4181736136 0.5499144729 0.7228957250 -0.3103994494 0.6173118763 -0.3189683416 0.6274296461 -0.7103458567 0.8712641422 0.4483012463 -0.1998118793 0.5522896374 0.5018461566 -0.6656775432 0.0438176298 0.9215923193 0.3856781201 -0.1388921469 0.6634275054 0.7352366398 -0.2921606943 0.6283444818 -0.7209891406 -0.2423015254 0.6304223517 -0.7374670360 -0.2922021234 0.6283598752 -0.7209589353 -0.2425591662 0.6304170761 -0.7373868463 -0.2922174031 0.6283589700 -0.7209535312 -0.2921226478 0.6283645820 -0.7209870393 -0.2922214245 0.6283587317 -0.7209521089 -0.2922212716 0.6283587408 -0.7209521630 -0.2923204295 0.6283528611 -0.7209170885 0.6905507090 -0.5385257062 0.4828351499 0.6923827884 -0.5317958023 0.4876466948 -0.3239058678 -0.9082912898 -0.2647487896 0.2225153298 -0.5413890782 -0.8107926948 -0.2705723830 -0.2507229264 -0.9294775951 0.5363017440 0.0284241174 0.8435475736 0.5366114097 0.0280245186 0.8433639910 0.5367428397 0.0278552077 0.8432859606 0.5365672570 0.0280815022 0.8433901872 0.5371823777 0.0272871830 0.8430246157 0.5369994938 0.0275237238 0.8431334344 0.5754339474 -0.0238391610 0.8175007441 0.5370877282 0.0274198111 0.8430806166 0.5370844074 0.0276544946 0.8430750668 0.5366890550 0.0282267066 0.8433078389 -0.5596371271 -0.2120883700 -0.8011396940 0.5379862763 0.0287420706 0.8424634472 -0.5039299420 -0.1115338205 -0.8565131758 -0.5074370574 -0.1046389021 -0.8553118337 -0.4920005869 -0.1319986208 -0.8605299452 -0.2360283050 -0.2810883512 -0.9302042668 0.8807962377 0.4731439031 0.0182437572 0.8992214713 0.4203376728 -0.1213135873 -0.2496839214 0.4389354800 -0.8631301083 -0.5364074146 -0.0224482242 -0.8436605732 -0.5370186542 -0.0188142474 -0.8433605333 -0.5564969002 0.0091895750 -0.8307988636 -0.5373250271 -0.0178543681 -0.8431862409 0.5951519445 -0.7609119711 0.2584707627 -0.6489847756 0.5001459681 -0.5732998967 0.3764164118 0.1857051806 -0.9076476579 0.7112520817 0.6971326610 -0.0901472643 -0.7821226631 0.2996435111 0.5463496189 -0.7842226828 0.2978679234 0.5443064248 -0.7795419725 0.3025420066 0.5484365482 0.5710087093 -0.6964399568 0.4346497905 0.1985610941 0.9200175393 -0.3378479234 -0.8091157777 -0.4411747595 -0.3881964578 -0.3682069602 0.6127448790 -0.6992620023 -0.3316899943 0.5726013827 -0.7497395576 0.7461840655 -0.1796415281 0.6410446644 0.7461456370 -0.1796129471 0.6410974011 0.7167877217 -0.1583209824 0.6790801342 0.7734190118 -0.2003886456 0.6013879138 0.7461622546 -0.1796252913 0.6410746013 -0.4193313975 -0.5027688354 -0.7558999122 -0.4194557840 -0.5025415428 -0.7559820388 -0.4196598398 -0.5024499730 -0.7559296551 -0.7415298826 0.4117482473 -0.5297138983 -0.7415348132 0.4117578489 -0.5296995325 -0.4197770134 -0.5022583718 -0.7559919225 -0.7415391785 0.4117663497 -0.5296868131 0.2146582135 -0.9186169379 0.3317601132 -0.4200927241 -0.5019887334 -0.7559956446 0.2847012457 -0.9353824761 0.2097732685 -0.4210578893 -0.5020964214 -0.7553869455 0.0879996055 -0.8748038866 0.4764181245 0.5534968879 0.0631924494 0.8304504256 -0.6956002358 0.4466893260 0.5626801561 0.6497714650 0.2292062970 0.7247492785 -0.8856737052 0.4457446976 0.1299759689 -0.3493985593 -0.4577079905 -0.8175720410 -0.3390360676 -0.4627001030 -0.8191234092 -0.9003011314 0.3258686151 -0.2885611174 -0.9124493487 0.3474365393 -0.2161574360 -0.4500914061 0.3636638378 0.8155773043 -0.8746582405 0.4664903352 -0.1317563260 -0.0313052676 -0.4524748969 -0.8912274950 -0.4579599097 -0.0149477775 -0.8888471663 -0.5119955357 0.0332691702 -0.8583435989 0.6903553367 0.2762224598 -0.6686633397 0.6963737849 0.0513497793 -0.7158398926 -0.8414191356 0.5325461034 0.0916977969 0.6066580676 -0.4904639603 -0.6256285580 0.3294027351 0.9441147377 0.0118827694 -0.0332102094 -0.3213326531 0.9463838587 -0.0291145560 -0.3259270914 0.9449464925 -0.0101715821 -0.3242407818 0.9459198985 -0.0012815288 -0.3329220223 0.9429534902 -0.0045666747 -0.3291483172 0.9442671925 0.0026835677 -0.3369487278 0.9415191731 -0.1962686210 -0.3796886933 -0.9040548239 0.4349725618 -0.6008272614 -0.6706753853 -0.3906909465 0.3877252798 -0.8348830407 0.9661348676 0.2415749676 -0.0906915248 0.6429248254 -0.6673357458 0.3759131166 0.5993368436 0.7564480456 0.2618810839 0.5531199333 0.8042466602 0.2173606428 0.0709145925 0.9195961170 0.3864118297 -0.3651733851 0.6518795482 -0.6646062393 -0.3004115417 0.6795870875 -0.6692639959 -0.3251093387 0.6706383808 -0.6667443889 -0.7957145557 0.5099292491 -0.3268187674 -0.7787056781 0.5482181616 -0.3050808321 0.4306754976 -0.6266867085 0.6494477540 0.4327946191 -0.6172573999 0.6570252050 -0.7146224500 0.6965823013 -0.0639363080 -0.6106846146 -0.7493889054 0.2558917153 0.1508531107 -0.6245104102 -0.7663093935 -0.6832464027 0.4931999216 -0.5384498032 -0.7247369855 0.6875578571 -0.0449499160 -0.7366838211 0.4336884290 -0.5188557547 -0.8246783999 0.3337139854 -0.4566623617 -0.6393679308 0.7151084547 0.2825394611 -0.6483312218 0.6910805423 0.3194907054 -0.6951222135 -0.5407813157 0.4736672639 -0.8017844651 0.4343730079 -0.4104409355 -0.2760098332 0.5495014059 -0.7885853010 -0.3138851740 0.5885677109 -0.7450262729 -0.4095203873 0.2977404981 0.8623477536 -0.4090558559 0.2921748847 0.8644692843 0.6784839525 0.7329161731 -0.0499340505 -0.6238229379 0.1590929954 0.7652021700 -0.6105286833 -0.7914571590 0.0291597729 -0.5101224172 -0.2439888565 -0.8247693965 -0.2168568681 -0.2478225474 -0.9442230053 0.8279037922 -0.4227090381 0.3686358364 -0.9368936696 0.3492012828 0.0169916460 -0.1439353879 -0.0251771165 -0.9892667572 -0.3630943090 -0.8733994571 -0.3245549432 -0.7039505426 0.5204149332 -0.4833445260 -0.6945147614 0.4921412708 -0.5248297017 0.8754147566 -0.2827676800 0.3920350023 -0.7593273921 -0.1410521552 -0.6352371219 -0.7518773082 -0.5171550936 -0.4089390205 0.7688825770 0.0741744844 0.6350730105 0.0299926082 -0.1977639810 -0.9797907181 -0.2629910031 0.8971972996 -0.3547854815 -0.9182811538 -0.0728954004 -0.3891606136 -0.8705930350 0.1567374601 -0.4663701705 0.3775175107 -0.3919281949 0.8389712863 -0.4352638383 0.4717950463 -0.7667821238 -0.4405866824 0.2448461494 -0.8636745558 0.7585942016 -0.4662265882 0.4551566826 -0.8452076166 0.1052326799 -0.5239753505 0.1721976243 -0.6290769970 -0.7580304150 0.1764023377 -0.6276969632 -0.7582075822 0.1727783411 -0.6285408901 -0.7583429266 0.1765741000 -0.6258580696 -0.7596862931 0.1721290379 -0.6265433407 -0.7601414583 -0.4077457615 0.9130456595 0.0095403171 -0.5202823051 0.4565569370 -0.7217077568 -0.5242139479 0.4419403986 -0.7279343521 0.6998651197 0.3969741276 0.5938016135 0.6989166247 0.3704018680 0.6118153380 -0.2116907038 0.8375475993 -0.5036874674 -0.2178275915 0.8627034962 -0.4563921757 0.3019128104 0.8230896894 0.4810114532 -0.4171985436 -0.8772618438 0.2373963621 0.9928131979 -0.1069565198 -0.0536866547 0.8369878227 0.2188283102 -0.5015631120 0.4423995543 -0.7058587575 0.5532142883 0.4423259774 -0.7059032830 0.5532163093 0.4814679541 -0.6805836562 0.5522630678 0.4816194159 -0.6804898098 0.5522466450 0.8658808932 0.2679814691 -0.4224171055 -0.7319511384 0.3770009794 -0.5675542199 -0.3365472120 0.5871683485 -0.7361856454 0.4128007009 -0.7190856247 0.5590272316 0.4129653318 -0.7188800152 0.5591700622 0.4129387683 -0.7188614408 0.5592135573 0.4129286175 -0.7188597115 0.5592232756 0.4129795372 -0.7188644848 0.5591795368 -0.4009679750 0.8157331548 -0.4168981929 -0.3633454336 0.9022726252 -0.2321297174 -0.3045581727 0.9290207419 -0.2101541826 0.8631382092 -0.3136212750 -0.3957702967 -0.0009321469 -0.2283991163 0.9735671393 0.5956806123 -0.1925336628 -0.7798047171 0.5138195174 -0.3686771404 -0.7746397032 -0.4626697202 -0.8607605781 0.2121979199 -0.5423228601 0.8294014834 -0.1340861467 0.2085605520 -0.2355480091 0.9492205390 -0.5479726295 -0.0558746825 -0.8346280712 -0.5028269202 -0.0990412887 -0.8586943062 -0.9037159895 0.3488068239 0.2482563390 -0.8572443458 0.4969950920 -0.1346402989 -0.8562510295 0.4948112305 -0.1483105546 -0.8570654553 0.4971056299 -0.1353691181 -0.4532334743 0.5550788571 -0.6974717773 -0.4946188912 0.5378341280 -0.6827053560 -0.0620641512 0.2094424397 -0.9758493252 0.3947809315 -0.2929727811 0.8708128190 0.3882544215 -0.3426846852 0.8554681237
        </DataArray>
        <DataArray type="Float32" Name="contact force" NumberOfComponents="3" format="ascii">