<?xml version="1.0"?>
<VTKFile type="UnstructuredGrid" version="0.1" byte_order="LittleEndian">
  <UnstructuredGrid>
    <FieldData>
      <DataArray type="Float32" Name="TIME"  NumberOfTuples="1" format="ascii"> 2.1500000000 </DataArray>
      <DataArray type="Int32"   Name="STEP"  NumberOfTuples="1" format="ascii"> 215000 </DataArray>
    </FieldData>
    <Piece NumberOfPoints="259" NumberOfCells="259">
      <Points>
        <DataArray type="Float32" NumberOfComponents="3" format="ascii">
 7.0539002012 0.1564186968 -7.5131737559 7.1784532498 0.0991903108 -7.4983375009 7.0944384311 0.0967994188 -7.6283090344 7.1881063564 0.0986011574 -7.5165187680 7.2207814119 0.0848469023 -7.6697547508 7.2234046319 0.3157597942 -7.4938240975 7.2344087907 0.3117281327 -7.5027635904 7.2324584863 0.4019422890 -7.5082261739 7.3166745237 0.1663586275 -7.7221873854 7.3240004064 0.1735592452 -7.7230759661 7.2837089665 0.4268274782 -7.6059990411 7.2890287900 0.4289951798 -7.6203905845 7.2487519711 0.3724438391 -7.7813897337 7.2578044386 0.3712278799 -7.7920665705 7.2757252666 0.3888298607 -7.8022263178 7.4070136835 0.3808027385 -7.6768918264 7.4173383008 0.3742171975 -7.6870689352 7.4266316492 0.3707780504 -7.7843779547 7.7176715923 0.2545244671 -7.3683449660 7.6561517421 0.3144141388 -7.4497921630 7.6557726401 0.3105515708 -7.4586355908 7.7314405347 0.5176622990 -7.5215002401 7.7307815726 0.5103243016 -7.5424871534 7.7295098094 0.2919897209 -7.5869989676 7.7292224618 0.3060205519 -7.5941941315 7.6764287319 0.4737624479 -7.6443507342 7.6713141117 0.4541758002 -7.6302337828 6.8892761943 0.7161628474 -7.3014781303 6.9027746161 0.7094457300 -7.3071552933 6.8411403875 0.7960901147 -7.1378304595 6.8518903102 0.7978005708 -7.1411220499 6.8398698785 0.7966985476 -7.1260530271 6.8512871122 0.7986165008 -7.1300178839 6.8743703147 0.6300330569 -7.2179648981 6.8696030677 0.6891024396 -7.0853661226 6.8770564076 0.6838448739 -7.0891723741 7.2684422478 0.7069971336 -7.4259764035 7.3531698757 0.7176826355 -7.5032518892 7.2560357612 0.7039339487 -7.5445296680 7.2595054701 0.7082284457 -7.5480651535 7.2540036428 0.7099798215 -7.5506843708 7.1236628273 0.7157720664 -7.4806927381 7.3505962240 0.8265555365 -7.5506994669 7.1970216097 0.8010933631 -7.4543386122 7.1913287639 0.8022124798 -7.4590994167 7.1993965400 0.8067559967 -7.4596549648 7.1941781989 0.8081584832 -7.4647767928 7.1894033285 0.8101714726 -7.4706054027 7.1678317919 0.3621421020 -7.0421965380 6.9932235814 0.5498291302 -7.1154051682 7.2369671914 0.4412204298 -7.0978079056 7.2437228615 0.4418382809 -7.1081905651 7.2289161301 0.3580336174 -7.1538389966 7.2478149927 0.4578788311 -7.1068197786 7.2534840459 0.4573880919 -7.1159610715 7.1343729470 0.3705241890 -7.2543671004 7.1065133507 0.6434003876 -6.9789278813 7.0862382957 0.6900068530 -7.1893318628 7.3110371907 0.4477575087 -7.2446579533 7.3183509148 0.4593495096 -7.2454154133 7.1581388017 0.7766892597 -7.0803995588 7.2979465107 0.7395356325 -7.1345196603 7.3077164146 0.7586437966 -7.1457956378 7.2094020600 0.8356499879 -7.2878771703 7.4301192761 0.7035950768 -7.2809757746 7.6037471894 0.2913787835 -7.4449280381 7.6086326194 0.2900452466 -7.4577204610 7.5917228824 0.1419137107 -7.4596754731 7.2873731176 0.0443135704 -7.6270264735 7.3955943183 0.2101493310 -7.5954772428 7.4744289835 0.3475504922 -7.5733369676 7.3257329572 0.2648409604 -7.4561552482 7.4091995773 0.1651806722 -7.3566717200 7.2982737443 0.1987419037 -7.3759993500 6.8942019927 0.3578683683 -7.3252000549 6.8900825836 0.3518270110 -7.3148118910 6.8956662674 0.3713437066 -7.1949426429 6.9015515067 0.3804125011 -7.1893374971 6.8988908161 0.3882069739 -7.1801686157 6.9045201593 0.3952842379 -7.1764540228 6.9018456126 0.4018429054 -7.1684393500 6.9046648299 0.4141488834 -7.1579635404 6.9019564976 0.4208138663 -7.1498461274 6.8542381766 0.5121042289 -7.2154761677 6.8584261250 0.5174589251 -7.2171347579 6.9216808729 0.5502570097 -7.0907662138 6.9162333434 0.5592973636 -7.0982028833 6.9950407376 0.2881363731 -7.1598942341 7.0495198816 0.2140945916 -7.2661075947 7.0459554925 0.2051483353 -7.2632886421 7.0547529073 0.2151932320 -7.2700754103 7.0407304724 0.1987211876 -7.2592495421 7.0515959208 0.2049337774 -7.2675337511 7.0594946371 0.2180668883 -7.2736959660 7.0639534719 0.2228808231 -7.2771307369 7.0683352993 0.2300745029 -7.2805367170 7.0728854951 0.2405012608 -7.2840956313 6.9469104298 0.2073945257 -7.1137569982 7.0792486465 0.2393479886 -7.2888942963 7.1392074446 0.2324306784 -7.2286609431 7.1449575920 0.2408057471 -7.2335825998 7.1526282170 0.2382835282 -7.2382883700 6.9799769958 0.1344875526 -7.1175122298 6.9360300622 0.0594149627 -7.1459122536 6.9490456293 0.0373560346 -7.1581483474 7.0294784515 -0.0428051653 -7.1583219531 7.1491442035 0.0393546443 -7.2248975358 7.1600466621 0.0596775382 -7.2330681428 7.1650475978 0.0701290385 -7.2368041357 7.1712315995 0.0755105784 -7.2415549093 7.6676630451 0.0975025021 -7.4463306785 7.2159964063 0.1581631505 -7.1784141890 7.2549702509 0.2784813825 -7.1646346345 7.5146121044 0.6679536789 -7.3067713603 7.5142723789 0.6786686908 -7.3037721783 7.5224201725 0.6817401185 -7.3015129448 7.4512216213 0.6024243463 -7.4589616556 7.5467694060 0.6624185247 -7.4481483321 7.5434257162 0.6654506172 -7.4535080311 7.5466416014 0.6717427684 -7.4514608499 7.4676788447 0.7344470799 -7.4536570224 7.2264324974 0.4679778612 -7.4757270792 7.2997004448 0.4755962066 -7.4833594189 7.3039862277 0.4945801326 -7.4774687903 7.3120865077 0.4882889962 -7.4885974301 7.1793040043 0.5178598611 -7.6009147630 7.1831363298 0.5335216689 -7.6031134513 7.1915380658 0.5322918395 -7.6142526848 7.3762023046 0.6302876812 -7.5616936045 7.3839920928 0.6337349802 -7.5685480748 7.4294926418 0.4583251942 -7.6634746102 7.4363745225 0.4692153192 -7.6661001639 7.3920558849 0.6373893585 -7.5756945415 7.4430205452 0.4798208959 -7.6687940046 7.2878909277 0.7363071164 -7.6538318392 7.4007520706 0.6415107131 -7.5835034218 7.2881105746 0.7231169565 -7.6639215028 7.4106122247 0.6464860318 -7.5925210319 7.3524630001 0.7515425402 -7.6546963370 7.3515066424 0.6273545461 -7.7786883847 7.4541621865 0.5603266981 -7.7602787628 7.3632031197 0.6413414580 -7.7910000826 7.5150575446 0.6710570803 -7.6959373095 7.2981091507 0.0844963005 -7.2742513126 7.3029830804 -0.0140039329 -7.2152158288 7.1334999232 0.0707466909 -7.1272355813 7.2172235833 0.0176958029 -7.1261063268 7.2101988253 0.0202987024 -7.1208730848 7.1429545635 -0.0322762113 -7.0970800385 7.1330558711 -0.0243048133 -7.1051682857 7.7606293648 0.4173661782 -7.5361274236 7.0125235319 0.0480716211 -7.3938443833 7.0185225613 0.0477175838 -7.3947743173 7.0261434394 0.0127458857 -7.4345599960 7.0232605073 0.1065602598 -7.4567832145 7.0266976047 0.1096671477 -7.4558200251 7.0302010629 0.1075861208 -7.4570612845 7.0341371470 0.1108592740 -7.4561221435 7.0556221602 0.1332217834 -7.3899840069 7.0640816805 0.1391100718 -7.3922180865 6.8657950329 0.8181176232 -7.0477881830 7.2625551271 0.3344165986 -7.4346406839 7.3174632196 0.5701419370 -7.8188494577 7.3099679978 0.5739283584 -7.8135436594 7.4376603853 0.0561132323 -7.6653321669 7.4179065671 0.0637314773 -7.6195172167 7.4277864406 0.0687791491 -7.6197546923 7.4215618779 0.0699155260 -7.6149069643 7.5064629006 0.1085394253 -7.6824784988 7.5146593549 0.1221764709 -7.6817444567 7.3730000066 0.1754483771 -7.6975772632 7.3776797314 0.1795145775 -7.6982146471 7.3564879209 0.0877428674 -7.1703020580 7.4113036354 0.1909193545 -7.1795561434 7.6054093014 0.5953956386 -7.6708209714 7.5790823490 0.5854739570 -7.5780801181 7.5760227267 0.4621937415 -7.6465959818 7.5752328931 0.4575840963 -7.6511967226 7.5718290319 0.4547809029 -7.6463117347 7.5342983003 0.3865070658 -7.7122200045 7.5228100673 0.3722725557 -7.7108714518 6.9407762794 0.7527920749 -7.4297105957 7.5053235748 0.6285818967 -7.5457983545 7.4169377034 0.5701687208 -7.4772047376 7.4098012924 0.5736171124 -7.4704084325 6.9670280777 0.7979022396 -7.0682792307 6.9743622036 0.7971723147 -7.0652349756 6.9143962507 0.1987738504 -7.3530321521 6.9875800368 0.2067437875 -7.4566029421 7.0768291909 0.0606874307 -7.0777213263 7.1088635387 0.1023681039 -7.0998045918 7.3546453695 -0.0461393255 -7.2964798491 7.3119631841 0.0008904929 -7.3350980753 7.3808384613 0.0061135679 -7.4336159472 7.4081702647 -0.0157016622 -7.4317737586 7.1842223689 0.8021861636 -7.0067979239 7.0357471754 0.8381013052 -7.1157670452 7.4358281335 0.1764115310 -7.2677411168 7.4550191094 0.1110538164 -7.3049526698 7.4569289785 0.1100153559 -7.3104467310 7.4523928732 0.1055895522 -7.3062110709 7.3434388153 0.1099834726 -7.3089636365 7.2884208522 0.0808605506 -7.7517204869 7.0894543200 0.7713057141 -7.5259313416 7.0448086475 0.8785347231 -7.5166635374 7.3995047230 0.7248186907 -7.1733846390 7.3992115383 0.7228385533 -7.0961878369 7.0499163430 0.7326539850 -7.3375764479 7.1081837413 0.8577003061 -7.3057690560 7.1159690801 0.8596864729 -7.3183891416 7.0875959078 0.8354737307 -7.3333439992 6.8510148459 0.1222053533 -7.2697914533 6.9149056146 0.0547068669 -7.3525134967 7.4321843021 0.8790179515 -7.5632705174 7.5274131753 0.8696995139 -7.5198270556 7.4250461941 0.8812417051 -7.5537591189 7.5250172408 0.8481407706 -7.5189155190 7.5758134000 0.6426783021 -7.5021082111 7.5782519826 0.6475600438 -7.5050576519 7.5977396982 0.3604229125 -7.6389917256 7.4492082291 0.0302909235 -7.5525711759 7.4504590324 0.0252181094 -7.5595809668 7.5320266936 0.0248401761 -7.7232789426 7.5480334945 0.0100351309 -7.6775252800 7.5469583816 0.0125564543 -7.6677351863 7.0221614316 0.0860972031 -7.5156186966 7.0767120850 0.2608548388 -7.4742857801 7.4382098275 0.8418378097 -7.6780333568 7.4380308392 0.8504027018 -7.6771356974 7.3624963455 0.8709018563 -7.6499904171 7.3612808608 0.8729778558 -7.6455596328 7.3023202069 0.4124149740 -7.0311303448 7.1471549970 0.5183696915 -6.9002980211 7.3638202953 0.1088786077 -7.8990527586 7.3717954005 0.1194836983 -7.8913441839 7.3737864794 0.1243908229 -7.8860083303 7.3762397824 0.1283469168 -7.8825713412 7.3792804621 0.1317202542 -7.8806160292 7.3831259163 0.1347369916 -7.8800188711 7.4403318874 0.0119865361 -7.4845873403 7.4302511894 0.0095356445 -7.4771714269 7.4599675071 0.0190028041 -7.4961131616 7.4236109076 0.2875938265 -7.8601840499 6.9649727611 0.4231475427 -7.4286681741 6.8935347762 0.5478658423 -7.2860660967 6.8851779275 0.5351519083 -7.2879628123 7.0322501318 0.5849768977 -7.3273423821 7.0592115211 0.6638907043 -7.3781589158 7.1010301148 0.4386509889 -7.5459929439 7.1483820179 0.3617274181 -6.9967449129 7.0643247460 0.2353875360 -7.0494825658 7.1121790106 0.2138109548 -6.9992085911 7.2585696091 0.7250873092 -7.0518309315 7.3456620404 -0.0089796663 -7.2312426870 6.9566314970 0.3449283218 -7.1366905746 6.9505828326 0.3418678754 -7.1338495511 7.4568989027 -0.0578390178 -7.3456540693 7.1652887148 0.8552986787 -7.3699403936 7.1587971803 0.8489737917 -7.3689088700
        </DataArray>
      </Points>
      <Cells>
        <DataArray type="Int32" Name="connectivity" format="ascii">
 0 1 2 3 4 5 6 7 8 9 10 11 12 13 14 15 16 17 18 19 20 21 22 23 24 25 26 27 28 29 30 31 32 33 34 35 36 37 38 39 40 41 42 43 44 45 46 47 48 49 50 51 52 53 54 55 56 57 58 59 60 61 62 63 64 65 66 67 68 69 70 71 72 73 74 75 76 77 78 79 80 81 82 83 84 85 86 87 88 89 90 91 92 93 94 95 96 97 98 99 100 101 102 103 104 105 106 107 108 109 110 111 112 113 114 115 116 117 118 119 120 121 122 123 124 125 126 127 128 129 130 131 132 133 134 135 136 137 138 139 140 141 142 143 144 145 146 147 148 149 150 151 152 153 154 155 156 157 158 159 160 161 162 163 164 165 166 167 168 169 170 171 172 173 174 175 176 177 178 179 180 181 182 183 184 185 186 187 188 189 190 191 192 193 194 195 196 197 198 199 200 201 202 203 204 205 206 207 208 209 210 211 212 213 214 215 216 217 218 219 220 221 222 223 224 225 226 227 228 229 230 231 232 233 234 235 236 237 238 239 240 241 242 243 244 245 246 247 248 249 250 251 252 253 254 255 256 257 258
        </DataArray>
        <DataArray type="Int32" Name="offsets" format="ascii">
 1 2 3 4 5 6 7 8 9 10 11 12 13 14 15 16 17 18 19 20 21 22 23 24 25 26 27 28 29 30 31 32 33 34 35 36 37 38 39 40 41 42 43 44 45 46 47 48 49 50 51 52 53 54 55 56 57 58 59 60 61 62 63 64 65 66 67 68 69 70 71 72 73 74 75 76 77 78 79 80 81 82 83 84 85 86 87 88 89 90 91 92 93 94 95 96 97 98 99 100 101 102 103 104 105 106 107 108 109 110 111 112 113 114 115 116 117 118 119 120 121 122 123 124 125 126 127 128 129 130 131 132 133 134 135 136 137 138 139 140 141 142 143 144 145 146 147 148 149 150 151 152 153 154 155 156 157 158 159 160 161 162 163 164 165 166 167 168 169 170 171 172 173 174 175 176 177 178 179 180 181 182 183 184 185 186 187 188 189 190 191 192 193 194 195 196 197 198 199 200 201 202 203 204 205 206 207 208 209 210 211 212 213 214 215 216 217 218 219 220 221 222 223 224 225 226 227 228 229 230 231 232 233 234 235 236 237 238 239 240 241 242 243 244 245 246 247 248 249 250 251 252 253 254 255 256 257 258 259
        </DataArray>
        <DataArray type="UInt8" Name="types" format="ascii">
 1 1 1 1 1 1 1 1 1 1 1 1 1 1 1 1 1 1 1 1 1 1 1 1 1 1 1 1 1 1 1 1 1 1 1 1 1 1 1 1 1 1 1 1 1 1 1 1 1 1 1 1 1 1 1 1 1 1 1 1 1 1 1 1 1 1 1 1 1 1 1 1 1 1 1 1 1 1 1 1 1 1 1 1 1 1 1 1 1 1 1 1 1 1 1 1 1 1 1 1 1 1 1 1 1 1 1 1 1 1 1 1 1 1 1 1 1 1 1 1 1 1 1 1 1 1 1 1 1 1 1 1 1 1 1 1 1 1 1 1 1 1 1 1 1 1 1 1 1 1 1 1 1 1 1 1 1 1 1 1 1 1 1 1 1 1 1 1 1 1 1 1 1 1 1 1 1 1 1 1 1 1 1 1 1 1 1 1 1 1 1 1 1 1 1 1 1 1 1 1 1 1 1 1 1 1 1 1 1 1 1 1 1 1 1 1 1 1 1 1 1 1 1 1 1 1 1 1 1 1 1 1 1 1 1 1 1 1 1 1 1 1 1 1 1 1 1 1 1 1 1 1 1 1 1 1 1 1 1
        </DataArray>
      </Cells>
      <PointData Scalars="overlap">
        <DataArray type="Float32" Name="overlap" format="ascii">
 0.0001411102 0.0000305469 0.0001041098 0.0001555277 0.0000429564 0.0000775695 0.0000423193 0.0001221488 0.0000515873 0.0002449651 0.0003307822 0.0000202466 0.0000396915 0.0000177221 0.0003252165 0.0000144453 0.0002361346 0.0000947127 0.0001600917 0.0003321434 0.0001900295 0.0002699025 0.0002078472 0.0003036165 0.0002461903 0.0001105098 0.0004378075 0.0003562266 0.0001369184 0.0000846067 0.0000034412 0.0000849826 0.0000523218 0.0002294678 0.0001644331 0.0001783047 0.0000717179 0.0002451618 0.0002491472 0.0005614749 0.0000644258 0.0001928164 0.0000873755 0.0001321686 0.0001840975 0.0002144869 0.0003861210 0.0001694440 0.0000693077 0.0001847083 0.0000525810 0.0000277029 0.0000011177 0.0000151712 0.0000947739 0.0002966695 0.0001854021 0.0000384768 0.0001126632 0.0000075107 0.0000067884 0.0000712052 0.0000757038 0.0002050873 0.0000135623 0.0000102670 0.0001202352 0.0000278959 0.0000111222 0.0001547229 0.0000520543 0.0001329447 0.0000878403 0.0000928660 0.0000901145 0.0000571022 0.0000376714 0.0000457291 0.0000522868 0.0000145039 0.0000427431 0.0000084356 0.0000095904 0.0000961220 0.0000664973 0.0000533327 0.0000602767 0.0000268646 0.0000382251 0.0000248045 0.0000617410 0.0000002241 0.0000224123 0.0000762782 0.0000919686 0.0001054813 0.0000899340 0.0000446210 0.0001084871 0.0000061774 0.0000495304 0.0000051488 0.0000566379 0.0000120346 0.0000429324 0.0000278107 0.0000168507 0.0000998266 0.0000537994 0.0000242308 0.0000952984 0.0000146993 0.0000023644 0.0001064329 0.0000236545 0.0000343598 0.0000471705 0.0000368397 0.0001708954 0.0000076208 0.0002431079 0.0001301068 0.0001283883 0.0001046851 0.0000429444 0.0001031146 0.0000151875 0.0000893841 0.0000008072 0.0000157029 0.0000546483 0.0001842198 0.0000269978 0.0001223277 0.0000414560 0.0000375639 0.0001903226 0.0000390986 0.0000580874 0.0000223899 0.0001043774 0.0002649270 0.0001334947 0.0000171644 0.0000130715 0.0000868539 0.0000038270 0.0000224541 0.0000739312 0.0000033455 0.0000129095 0.0000560027 0.0000052283 0.0000658362 0.0000001031 0.0000193569 0.0000362813 0.0000049465 0.0000361857 0.0000130721 0.0000664208 0.0000082179 0.0001150290 0.0000761049 0.0000566815 0.0000270995 0.0000357262 0.0000925598 0.0000407533 0.0000105097 0.0002054888 0.0000285892 0.0001921756 0.0000000379 0.0000502329 0.0000234186 0.0001332073 0.0000968091 0.0001295187 0.0001068273 0.0000606455 0.0003178376 0.0000419974 0.0000303280 0.0000383383 0.0000460719 0.0000538675 0.0001793965 0.0001209293 0.0000060351 0.0000318146 0.0000173145 0.0000139373 0.0000029595 0.0000134568 0.0000225537 0.0000072313 0.0000050655 0.0000095186 0.0000660719 0.0000446161 0.0000312951 0.0000028657 0.0001902394 0.0000481387 0.0000216031 0.0000519889 0.0000823998 0.0000525338 0.0000437440 0.0001308597 0.0000459407 0.0001095345 0.0001209625 0.0000188570 0.0000105586 0.0000627857 0.0000079878 0.0000087991 0.0000423494 0.0000811006 0.0000305120 0.0000107293 0.0000242758 0.0000472076 0.0000011974 0.0000239690 0.0000405086 0.0000269883 0.0000045741 0.0000137667 0.0000555703 0.0000318488 0.0000410549 0.0000728335 0.0000366234 0.0000154534 0.0000134090 0.0000248113 0.0000313971 0.0000133188 0.0000385207 0.0000287612 0.0000204511 0.0000581203 0.0000190239 0.0000554552 0.0000051983 0.0000192637 0.0000060140 0.0000128160 0.0000222146 0.0000215317 0.0000438776 0.0000228214 0.0000260479 0.0000793299 0.0000078092 0.0000564609
        </DataArray>
        <DataArray type="Float32" Name="contact normal" NumberOfComponents="3" format="ascii">
 0.5309963463 -0.0431450652 -0.8462750047 -0.5458368342 0.7818619066 -0.3012542273 0.5310950772 0.7711440770 0.3511051573 -0.5215574638 0.7764543855 -0.3536896932 -0.6561413311 0.7405756097 -0.1450045515 -0.6953011455 0.0588434564 -0.7163056364 -0.5953335587 0.0110343304 -0.8034028861 0.2293526449 -0.6614630503 -0.7140476156 -0.7692007436 0.6380378334 -0.0351843615 -0.7257619252 0.6856959666 -0.0555937892 -0.2955236721 -0.9344762831 -0.1985442911 -0.3141077082 -0.8282606902 -0.4640264828 0.5991418973 -0.5444251037 0.5870522066 0.6040023617 -0.5370021506 0.5889056268 0.6390561532 -0.4792437509 0.6016083944 -0.7756583706 0.1532358904 -0.6122686126 -0.7490365695 0.0031681872 -0.6625210790 -0.1019936767 -0.2237728781 0.9692899406 -0.9437463186 0.2992310839 -0.1407254225 0.9556034833 -0.1834448604 0.2305861354 0.9752965230 -0.1654942047 0.1463159613 -0.9773321992 -0.2112211162 0.0144018214 -0.9732730112 -0.2290731875 -0.0162825215 -0.9471000072 0.1141488201 0.2999527017 -0.9294091506 0.3559594625 0.0974242873 0.9516671258 0.0447457762 0.3038544013 0.9325283320 -0.0784307900 0.3524762703 -0.0550431102 -0.6200837904 0.7826022929 0.0148287249 -0.6669220981 0.7449798816 0.1832952433 -0.9805191156 0.0706053655 0.1835435855 -0.9804687380 0.0706597912 0.1833293358 -0.9805122038 0.0706128372 0.2487103164 -0.9648524744 0.0848697891 0.3426381406 0.9394658840 0.0017196859 0.0936577643 0.6563884303 -0.7485869701 0.1260380002 0.6238839986 -0.7712867034 -0.6007531388 -0.0638020851 -0.7968845338 -0.7703693415 0.5838371643 0.2562523040 -0.4430142068 0.5442797605 0.7123889070 -0.3798621086 0.5653093460 0.7322090697 -0.4188689464 0.5729378525 0.7044792566 0.8391795938 0.1848564307 0.5114740553 0.2132589796 -0.7662224510 0.6061549003 0.3141574509 -0.7666913464 -0.5599013087 0.3201179351 -0.7601708351 -0.5653890776 0.4111978302 -0.6964005609 -0.5881688561 0.3948289022 -0.7088142533 -0.5845446881 0.3834460204 -0.7171912407 -0.5818985080 0.0112938180 0.8715511797 -0.4901744494 0.7629487225 -0.4344574029 0.4787024251 -0.8193350117 0.2653918294 -0.5081902356 -0.8148233458 0.2458210332 -0.5250094616 -0.6483886785 0.7066708571 -0.2832109133 -0.8142084118 0.3096236884 -0.4911189609 -0.8137610481 0.2768561258 -0.5110221543 0.4202556097 0.4811288577 0.7693505344 -0.2365093195 -0.3524319015 -0.9054585007 0.4899038156 -0.8674932908 -0.0863113078 -0.9285071666 0.3185197431 -0.1908392379 -0.7913323761 0.5852704899 0.1767810062 0.1588215642 -0.5031081935 -0.8495044770 -0.6610716431 -0.1544212636 -0.7342604143 -0.5314001049 -0.1311661249 -0.8369046398 0.4848700192 -0.7638207001 0.4260035242 -0.8373601368 -0.0624437907 -0.5430734520 0.8331797732 -0.3897297476 0.3923291849 0.8375277902 -0.3839524113 0.3887515229 -0.6961097271 0.7178708922 -0.0096244458 0.0933004270 -0.4739811541 0.8755780353 0.1684647711 0.5617251046 0.8099904492 -0.2586831546 -0.8451780298 0.4677147885 0.7862087658 -0.2992517028 0.5406701351 -0.4103173577 0.6459527846 -0.6437271674 0.8252747509 0.5120158500 -0.2382464161 0.0212920188 0.8989903876 0.4374504919 -0.1184956772 0.6104256731 0.7831597998 -0.3838083906 0.6488338582 -0.6570431826 -0.3358248450 0.6548605570 -0.6770371662 -0.3838232862 0.6488316879 -0.6570366243 -0.3837320306 0.6488449824 -0.6570767973 -0.3838272985 0.6488311032 -0.6570348578 -0.3838272740 0.6488311068 -0.6570348686 -0.3839229070 0.6488171669 -0.6569927590 0.7562982814 -0.5212515467 0.3953602593 0.7581160734 -0.5147062231 0.4004216816 -0.2913482497 -0.9099586478 -0.2951126169 0.1885227631 -0.4788202060 -0.8574324336 -0.3287977512 -0.2139480136 -0.9198468820 0.5991074915 0.0136066385 0.8005529795 0.5994239038 0.0132380464 0.8003222711 0.5995582214 0.0130818428 0.8002242214 0.5993787626 0.0132906401 0.8003552073 0.6000073318 0.0125578647 0.7998959319 0.5998204912 0.0127760368 0.8000325939 0.5999100609 0.0126809146 0.7999669451 0.5998928324 0.0129146895 0.7999761249 0.5994851959 0.0134471729 0.8002728744 -0.6082434559 -0.2005625239 -0.7679938622 0.6006784422 0.0140865844 0.7993666100 -0.5630199202 -0.0938286826 -0.8210997185 -0.5668122600 -0.0872370164 -0.8192152128 -0.5502957491 -0.1132574302 -0.8272528894 -0.2924224473 -0.2417811415 -0.9252194291 0.8512810614 0.5243277377 -0.0200244335 0.8614478952 0.4807676893 -0.1636152583 -0.3420708671 0.4707853418 -0.8132334743 -0.5993912002 -0.0079351619 -0.8004169054 -0.6001836336 -0.0043702024 -0.7998503030 -0.6201804650 0.0216168701 -0.7841612728 -0.6005291621 -0.0034434914 -0.7995954401 -0.7172525111 0.4978912962 -0.4874967615 -0.0053628944 0.5525424811 0.8334674835 -0.2832363276 -0.9586372668 0.0281384699 0.1591705555 0.2426988486 -0.9569545460 0.1773543433 0.3042229834 -0.9359454115 0.2090186106 0.3100808256 -0.9274487059 0.6623771505 0.7425744888 -0.0991949546 -0.7520269847 0.2195856211 0.6214801439 -0.7541819649 0.2177999262 0.6194939515 -0.7494628761 0.2225077362 0.6235348464 0.6428256915 -0.6829326209 0.3469555673 0.1104769162 0.9466554817 -0.3027181032 -0.8093832164 -0.4739468560 -0.3468042484 -0.4570450308 0.6278099528 -0.6300511908 -0.4222542833 0.5928579531 -0.6857264525 0.7564613687 -0.0914740076 0.6476099934 0.7564542575 -0.0914453923 0.6476223410 0.8146054981 -0.1239920573 0.5666073175 -0.4486027152 -0.4836926111 -0.7515298143 -0.4488086501 -0.4836157631 -0.7514563123 -0.8035629346 0.3943092722 -0.4458775706 -0.8035672743 0.3943177678 -0.4458622363 -0.4489416657 -0.4834277335 -0.7514978425 -0.8035711183 0.3943252931 -0.4458486526 0.8414222676 -0.0504956035 0.5380137187 -0.4492734043 -0.4831770160 -0.7514608302 0.2978125284 -0.9473941637 0.1172689072 -0.4501888374 -0.4833743597 -0.7507857478 0.1775706965 -0.8927867875 0.4140053137 0.6148858098 0.0496420204 0.7870521652 -0.6732062467 0.3703150378 0.6400469687 0.6923890878 0.2270494760 0.6848692477 -0.8962181694 0.3825745273 0.2245656341 -0.4037153420 0.2881927910 0.8683080317 -0.9079659807 0.4176347541 -0.0343364235 -0.0758466221 -0.4018923588 -0.9125403125 -0.5238068987 0.0077578347 -0.8518017075 -0.5776681951 0.0511585357 -0.8146669630 0.6182370988 0.3557904353 -0.7008538049 0.6333587670 0.1348624114 -0.7620162742 -0.8604704852 0.4730471662 0.1892535935 -0.1642760476 0.1389010004 -0.9765858346 -0.1246008615 0.0907693388 -0.9880463311 0.2001445425 0.9638837157 0.1756995864 0.0649936943 -0.3800877971 0.9226641242 0.0839298346 -0.3773783136 0.9222480096 0.0930764530 -0.3853406720 0.9180682656 0.0970340668 -0.3889614842 0.9161295507 -0.2445773058 -0.3398132355 -0.9081348504 0.4108066528 -0.5313257393 -0.7408986792 -0.4765603299 0.4095784302 -0.7779047252 -0.1127799037 0.6723726888 0.7315706806 0.5738172670 0.7762944944 0.2609609206 0.5218877507 0.8232219394 0.2234699402 0.0486585324 0.8988257170 0.4355969211 -0.4534000832 0.6645960866 -0.5939195284 -0.3908997915 0.6964733271 -0.6017659492 -0.4147750190 0.6858836918 -0.5979341477 -0.8472424156 0.4771115723 -0.2335483609 -0.8307942983 0.5150910872 -0.2108601567 0.5159027486 -0.6347724935 0.5752462390 0.5180728258 -0.6256684679 0.5832148107 -0.7754911117 0.6312437619 0.0120353137 -0.2922178302 -0.7675616116 0.5704891867 -0.5446349061 -0.7988940887 0.2552274558 0.1247820832 -0.5699765444 -0.8121306364 -0.7640940425 0.6429835856 0.0522723910 -0.7990596887 0.4160877373 -0.4340214381 -0.8759945120 0.3075216103 -0.3715697433 -0.6826627638 0.6718573661 0.2873660220 -0.7169416437 0.6078047606 0.3414206387 -0.2745341042 -0.3559159166 0.8932832059 -0.8554845083 0.4057738317 -0.3217046061 -0.3687051185 0.5755296221 -0.7299467033 -0.4051544304 0.6096392815 -0.6813147833 -0.3561727641 0.2225931064 0.9075203971 -0.3552230212 0.2169510721 0.9092572999 0.6292481242 0.7751504700 -0.0564672210 -0.5689224903 0.0769186622 0.8187861256 -0.5555935524 -0.2273585601 -0.7997648965 -0.2765990713 -0.2066114921 -0.9385119313 -0.5631948921 0.1757346230 -0.8074211143 0.8734196485 -0.3976674469 0.2810671081 0.4692570210 -0.6761523793 0.5679927889 -0.9660060050 -0.1728372976 0.1922489713 -0.2258436640 0.0279292329 -0.9737631115 0.8939196820 0.4102112285 0.1806497995 -0.3371395706 -0.8744378055 -0.3488487270 -0.7899063428 0.5113380305 -0.3384987269 -0.7772398824 0.4967216262 -0.3862198743 -0.7847848614 0.4871339174 -0.3831621953 0.9185174909 -0.2498551592 0.3064278354 0.4222104302 -0.7266575613 0.5419475447 -0.8080113718 -0.1374302275 -0.5729140910 -0.5120868084 -0.8588620134 0.0110969625 0.8114894692 0.0853772259 0.5780965063 -0.0364014029 -0.1400284929 -0.9894781246 -0.3428483077 0.8986762924 -0.2735616191 -0.9406260040 -0.1071871910 -0.3220770510 -0.9123937339 0.1289892600 -0.3884577779 0.4647650915 -0.4147105376 0.7823097722 -0.5209409385 0.4860094215 -0.7017231511 -0.5133190736 0.3192816871 -0.7965944595 0.8176340169 -0.4438426699 0.3667128288 -0.9142037224 0.0892940100 -0.3952949958 0.7509497134 0.1331963274 0.6467868786 -0.8888576354 0.0821019935 -0.4507675307 0.1474911558 -0.5726059613 -0.8064544451 0.1510045360 -0.5696295206 -0.8079107868 -0.4572801309 0.8840906684 0.0963253440 -0.6012394588 0.4637026255 -0.6507618521 -0.6048099901 0.4492513663 -0.6575546257 0.7210754307 0.4049549209 0.5621936813 -0.3000711506 0.8501519780 -0.4326649036 -0.3038590525 0.8720896527 -0.3835743916 0.4266328221 0.6919493571 0.5824006546 -0.3815206588 -0.9101072583 0.1616996145 0.9899084618 -0.0426442267 -0.1351395842 0.7807259239 0.2979508250 -0.5492652707 0.5242744461 -0.7070749464 0.4745327443 0.5241900058 -0.7071335281 0.4745387353 -0.7883704833 0.3516361964 -0.5048009176 -0.4264108355 0.6061087841 -0.6714208376 0.4947879119 -0.7235346961 0.4813340480 0.4949516576 -0.7233279117 0.4814764674 0.4949276690 -0.7233135173 0.4815227494 0.4949183282 -0.7233129698 0.4815331725 0.4949306257 -0.7233127518 0.4815208603 0.4949660756 -0.7233121031 0.4814853948 -0.4789731294 0.8115615410 -0.3345931955 -0.4317698089 0.8897027998 -0.1483366445 -0.3728640374 0.9188451693 -0.1292128649 0.8474594047 -0.2440562348 -0.4714330404 0.3787383414 -0.8648518882 0.3295276624 0.5421868680 -0.1108222369 -0.8329176622 0.4712161360 -0.2917130929 -0.8323814178 -0.3932755250 -0.8982549674 0.1961437610 0.3968405287 -0.0614893273 0.9158256698 0.3052380021 -0.2519103575 0.9183522929 -0.6076028139 -0.0364098933 -0.7934060374 0.6818957206 0.3110964479 0.6619948839 -0.1357181481 0.8351962202 -0.5329426404 -0.5628052119 -0.0816701691 -0.8225449999 -0.8995734712 0.2784055291 0.3365381573 -0.5383148974 0.5646502458 -0.6256094398 -0.5773467551 0.5440664048 -0.6088205578 -0.1510840223 0.2612994313 -0.9533604908 0.4788054293 -0.3168398321 0.8187538590 0.4739393081 -0.3659117464 0.8009307874
        </DataArray>
        <DataArray type="Float32" Name="contact force" NumberOfComponents="3" format="ascii">