<?xml version="1.0"?>
<VTKFile type="UnstructuredGrid" version="0.1" byte_order="LittleEndian">
  <UnstructuredGrid>
    <FieldData>
      <DataArray type="Float32" Name="TIME"  NumberOfTuples="1" format="ascii"> 0.7000000000 </DataArray>
      <DataArray type="Int32"   Name="STEP"  NumberOfTuples="1" format="ascii"> 70000 </DataArray>
    </FieldData>
    <Piece NumberOfPoints="325" NumberOfCells="325">
      <Points>
        <DataArray type="Float32" NumberOfComponents="3" format="ascii">
 0.8972600055 0.2111689038 -0.7767874235 0.9557162329 0.1247164106 -0.8765459338 1.0235738760 0.1387055629 -0.7640937977 0.9672146196 0.1186654578 -0.8805374521 1.0643737555 0.1053681458 -0.9122854485 1.0828494877 0.3517428135 -0.7599401246 1.0938658662 0.3455859845 -0.7675666371 1.1030461376 0.4343626615 -0.7818685637 1.1725613861 0.1696335965 -0.9647591315 1.1807422245 0.1758281849 -0.9657686801 1.1632202645 0.4429421032 -0.8773104161 1.2220741360 0.2120756717 -1.0467762130 1.2235744932 0.2243983125 -1.0523727790 1.1336700483 0.3746256155 -1.0487858648 1.1637105459 0.3856135642 -1.0689613163 1.2845692330 0.3762310718 -0.9336210511 1.2946899548 0.3674969157 -0.9422744502 1.3099077241 0.3528087726 -1.0377914045 1.5091667302 0.3169179477 -0.6842517107 1.5082082229 0.3065790843 -0.6832002995 1.5079279713 0.3018912539 -0.6916516320 1.6119391007 0.4914586944 -0.7679555343 1.6118284051 0.4820876680 -0.7881249071 1.5873443125 0.2618252372 -0.8114191192 1.5892180595 0.2749699988 -0.8199282641 1.5604636005 0.4414131480 -0.8899666965 1.5521426730 0.4240997439 -0.8744578687 0.7365045085 0.9087731385 -0.4712094692 0.7557036281 0.7306705379 -0.5443318110 0.8473516903 0.8239202088 -0.6002582736 0.8528324583 0.8154082971 -0.6048639968 0.7499376962 0.8030897057 -0.4185209437 0.7568990801 0.7966241778 -0.4212336950 1.1763338259 0.7362393238 -0.7287545219 1.1696468215 0.7404103190 -0.7272111852 1.1732971256 0.7473738518 -0.7268508641 1.2599334888 0.7334255867 -0.7983168781 1.1647780939 0.7262777686 -0.8454146715 1.1689521041 0.7297663133 -0.8490703423 1.1638826312 0.7318284192 -0.8522662744 1.0346468949 0.7484683168 -0.7949259974 1.0311677633 0.7595108962 -0.7931632008 1.2734132917 0.8362478397 -0.8561468746 1.2731954647 0.8474614973 -0.8502815513 1.1119532151 0.8383923362 -0.7698618025 1.1067557256 0.8396285994 -0.7751328040 1.1153207400 0.8431640503 -0.7755031032 1.1106513986 0.8445897960 -0.7811237692 1.1065395335 0.8464947824 -0.7874711111 0.9228690531 0.4603608827 -0.4069213225 0.8577528311 0.6486288116 -0.4250506688 1.0135489960 0.4250317672 -0.4673850069 0.9672304012 0.4378733173 -0.5227456666 1.0983363334 0.5299062889 -0.3882646755 1.1044849342 0.5278271294 -0.3968566699 0.9850854872 0.4410994779 -0.5348770972 0.9723963635 0.7425348078 -0.2898704690 1.1193184601 0.5364452394 -0.4110796537 0.9715091007 0.7689406463 -0.5047583805 1.1687011646 0.4983842447 -0.5192396455 1.1773670922 0.5089466820 -0.5205474005 1.1173849867 0.8886838171 -0.6071300748 1.4532970554 0.2903482450 -0.6801508778 1.4588793195 0.2871818263 -0.6923226457 1.4507348013 0.2736554613 -0.6904297157 1.2471275432 0.2174836281 -0.8374480512 1.3401767003 0.3466482333 -0.8227668347 1.3516101494 0.3534492006 -0.8212866863 1.1812238728 0.2944334342 -0.7192646814 1.1754381447 0.2939239226 -0.7098698008 1.1349956093 0.2402303700 -0.6261849473 0.7504666323 0.4478801431 -0.6222279735 0.7449914048 0.4434486763 -0.6116605564 0.7397775501 0.4485225606 -0.5139841941 0.7470085360 0.4622111219 -0.5050231882 0.7450399398 0.4747283508 -0.4941688851 0.7515839357 0.4836229295 -0.4890346242 0.7492775290 0.4925862010 -0.4808956265 0.7554544752 0.4993417882 -0.4774630277 0.7530624312 0.5069647160 -0.4703515310 0.7505562575 0.5145509062 -0.4632838103 0.7566365103 0.5199122907 -0.4609327227 0.7542169378 0.5276548608 -0.4537321838 0.7220577668 0.6162910466 -0.5313754281 0.7269522872 0.6209396704 -0.5332181382 0.7853059770 0.6595882194 -0.4061346152 0.7814628115 0.6683345135 -0.4148137385 0.8312859623 0.3851491145 -0.4436175440 0.8833908575 0.2946687048 -0.5375754328 0.8786088097 0.2865254066 -0.5341834487 0.8889664099 0.2947497959 -0.5412143509 0.8724016667 0.2811858694 -0.5299545179 0.8981051979 0.3131058966 -0.5478018627 0.8844497122 0.2852340749 -0.5379381687 0.8641770512 0.2782941783 -0.5244992545 0.8942439457 0.2966764105 -0.5447194921 0.8788743283 0.2787096092 -0.5340710170 0.8898033667 0.2854642784 -0.5414417740 0.8718123466 0.2745428252 -0.5293258776 0.8994601996 0.3005714759 -0.5482510432 0.9048817999 0.3068296192 -0.5519916342 0.9108654038 0.3162473797 -0.5561856869 0.7709646796 0.3156227656 -0.3936971979 0.9107382244 0.3029547129 -0.5557565277 0.9173469187 0.3138892358 -0.5603422089 0.7952987790 0.2394957520 -0.3877509087 0.7557403483 0.1426808381 -0.4209991020 0.8258882321 0.0544713630 -0.4071746444 0.8443218204 0.0454581788 -0.4111836359 0.9723449919 0.1332271353 -0.4812286025 0.9787895474 0.1425995495 -0.4855670240 1.4654167652 0.1453444119 -0.8431114696 1.4133080910 0.0700275500 -0.8447952959 1.4939510997 0.0914161233 -0.6572654567 1.0244641274 0.2809703849 -0.3689334857 1.0236291789 0.2844484666 -0.3722989143 1.0288457446 0.2867080614 -0.3744598425 1.0368663650 0.2326622227 -0.4344810505 1.0411547771 0.2325479575 -0.4348343957 1.1094788515 0.2331809029 -0.3759479413 1.0465237462 0.2360117514 -0.4383468730 1.0509627461 0.2360482416 -0.4387137905 0.9930645529 0.3145556160 -0.4374221527 0.9965917716 0.3130048119 -0.4450296856 1.0003753507 0.3212822452 -0.4389774481 1.4006743502 0.6869943483 -0.5860956466 1.3447897586 0.6075559266 -0.7275603553 1.4412505569 0.6630831916 -0.7233372482 1.4386904831 0.6659237233 -0.7292092459 1.4425266332 0.6719668800 -0.7275066888 1.3725361036 0.7431221067 -0.7418236308 1.1033719245 0.5035378719 -0.7562496130 1.1772430526 0.5020702546 -0.7590558495 1.1834333330 0.5210837819 -0.7547462532 1.1914375374 0.5127878347 -0.7645613359 1.0765045929 0.5595965768 -0.8921830078 1.0810852287 0.5733895371 -0.8932028845 1.0840746934 0.5865598696 -0.8923680644 1.0892122192 0.5701879113 -0.9036600390 1.0855667191 0.5994279323 -0.8898810825 1.0922622738 0.5832211476 -0.9027719799 1.0939638773 0.5958957902 -0.9003820970 1.0943802783 0.6085364480 -0.8965314832 1.1008878946 0.5919256974 -0.9098087472 1.1017847174 0.6043151446 -0.9062755679 1.1014968690 0.6169165417 -0.9014232169 1.1081566006 0.6121458393 -0.9107204330 1.2764162910 0.6382648090 -0.8460130327 1.2849790291 0.6400839078 -0.8525642531 1.3154207224 0.4517301976 -0.9262743024 1.3237009412 0.4614483235 -0.9294126328 1.2938563021 0.6420464040 -0.8594048298 1.1999366005 0.7461463244 -0.9439757264 1.3317179440 0.4709041922 -0.9326088512 1.1993645024 0.7313922162 -0.9536255853 1.3034575225 0.6443302884 -0.8669006734 1.3143899115 0.6472013567 -0.8755915840 1.2731428529 0.7509242120 -0.9519166871 1.3492837148 0.5329692436 -1.0348328167 1.2655365719 0.6152225750 -1.0628891622 1.3581266494 0.5395772475 -1.0303349405 1.2795552421 0.6264548370 -1.0756056550 1.4274107695 0.6490363075 -0.9726782108 1.3971302972 0.7009581082 -0.9836879453 1.0050721961 0.6092293838 -0.9101534952 1.0074363087 0.6187330996 -0.9049212363 1.0107670028 0.6192043593 -0.9132903208 1.0125363129 0.6277708174 -0.9078855751 1.0147945716 0.6197988221 -0.9223996876 1.0161685534 0.6287430591 -0.9162937398 1.0175060823 0.6365731890 -0.9108669084 1.0205545239 0.6300997772 -0.9254638532 1.0215529412 0.6382832292 -0.9194463768 1.0226213512 0.6455673700 -0.9141652580 1.0262033899 0.6408145601 -0.9285332211 0.9589458273 0.7577496353 -0.8514356371 1.0271574889 0.6483616515 -0.9229956761 0.9562712229 0.7673098875 -0.8561566503 0.9661413436 0.7582176253 -0.8556470570 1.0281883760 0.6553244361 -0.9181298740 0.9642797833 0.7674962535 -0.8607713879 0.9733319176 0.7592347905 -0.8603021880 0.9723413998 0.7682580077 -0.8659038232 0.9807864234 0.7610072928 -0.8657181675 0.9807626599 0.7697724686 -0.8718840642 0.9888904600 0.7638289725 -0.8723674879 0.9965636310 0.7587540755 -0.8734131055 0.9982143994 0.7680690508 -0.8809274514 1.1148436786 0.1379818536 -0.5138693370 1.1122612985 0.1255099320 -0.5085484067 1.1040928078 0.0463281169 -0.4453659263 0.9405309583 0.1582875214 -0.3793650356 0.9356469587 0.0586046688 -0.3386857067 1.6297762175 0.3876558806 -0.7706605998 0.8362072435 0.1213842034 -0.6510643120 0.8400960432 0.0828410779 -0.6837814438 0.8525943076 0.0786781783 -0.6805790100 0.8548850084 0.1738196309 -0.7176235425 0.8580775582 0.1712012897 -0.7184201382 0.8617916635 0.1739856080 -0.7174971975 0.8650949265 0.1714063043 -0.7182610529 0.8658308914 0.1768648377 -0.7165501498 0.8693243462 0.1742971911 -0.7173428213 0.8888677261 0.2010441062 -0.6522742675 1.0012277392 0.2461909146 -0.2604734417 0.7598232338 0.9331591561 -0.3951466731 1.0130003473 0.4765727733 -0.7234860202 1.0090100787 0.4670539392 -0.7207569251 1.1206606859 0.3754357856 -0.7041773614 1.2276280929 0.5584062096 -1.0998322740 1.2203241808 0.5634955357 -1.0954242688 1.2754703200 0.0530964214 -0.8882491656 1.2537948882 0.0676342549 -0.8450820210 1.2641971923 0.0715006306 -0.8450493137 1.2578468130 0.0738290362 -0.8408313581 1.3509631216 0.0953979687 -0.9050948836 1.2276575313 0.1746840295 -0.9368675238 1.2328212913 0.1781102410 -0.9375297150 1.5062893865 0.5667484092 -0.9330491720 1.4641837537 0.4432709811 -0.9033342776 1.4596929196 0.4409987688 -0.8983439602 1.4586625635 0.4360424571 -0.9025319886 1.4546349473 0.4341659407 -0.8976740585 1.4005370809 0.3512783049 -0.9575179960 1.4028875246 0.6239969885 -0.8202478511 0.8581814320 0.9016479378 -0.4043709866 0.8651605121 0.9004269774 -0.4007115632 0.7535675014 0.2854495249 -0.6328129165 0.8340925147 0.2742452566 -0.7304502262 0.9394328425 0.3982395094 -0.4227226058 0.8799046672 0.1598728719 -0.3336041863 0.9180679319 0.1951242828 -0.3571028674 0.8289397122 0.2733571887 -0.3838775017 1.1431741731 0.0436553322 -0.6126423821 1.0698351764 0.8882128179 -0.3269246979 0.9341598404 0.9286385131 -0.4500343370 1.2722266419 0.1383261621 -0.5357352493 1.2741240833 0.1364379932 -0.5409991930 1.2686632913 0.1334237878 -0.5365671692 1.1650753112 0.1545744742 -0.5471901406 1.1946254074 0.9030464086 -0.6707502982 1.1710241316 0.8984771138 -0.7444507081 1.3964513603 0.2798284522 -1.0380769462 1.4002592009 0.2869451590 -1.0364847042 1.0436455495 0.7661996400 -0.8774776312 1.0368939498 0.7830863698 -0.8736460511 0.9915503300 0.9128217475 -0.9109847022 1.2848150286 0.7699786203 -0.4680252554 1.2791420192 0.7761510762 -0.3913114844 1.0333301198 0.9190433681 -0.7649648038 0.7470421502 0.0659484289 -0.6348103274 0.7416428402 0.0635630665 -0.6393703764 0.7352747134 0.0620373686 -0.6439534277 0.7273983025 0.0616818879 -0.6489464635 0.9502720734 0.7995176619 -0.6587769175 1.0207896715 0.9199078819 -0.6347971349 1.0295663698 0.9196726978 -0.6469094747 0.9995773489 0.8973380744 -0.6615973049 0.6761818292 0.2256787411 -0.5476920182 0.7368493522 0.1431410558 -0.6183124676 1.3611489188 0.8776334963 -0.8673520044 1.3537378361 0.8816588103 -0.8586613059 1.4717027045 0.6285838455 -0.7670065339 1.4747617368 0.6321112683 -0.7696004827 1.4713565172 0.6345556327 -0.7724609480 1.4745493980 0.6388039186 -0.7756601613 1.4686061255 0.3388010576 -0.8792498884 1.2764859861 0.0382771947 -0.7729422887 1.2775814520 0.0323820750 -0.7793061015 1.3690429340 0.0056493789 -0.9354125004 1.3668669741 -0.0010278092 -0.9286543482 1.3801057013 -0.0059627611 -0.8873466145 1.3786968823 -0.0023136342 -0.8779635715 0.8576013881 0.1450195531 -0.7748628912 0.9296518771 0.3159369878 -0.7465457236 1.3703935586 0.8281447701 -0.9769133303 1.3712144709 0.8367216605 -0.9768632245 1.2969195389 0.8682767282 -0.9579818878 1.2956715337 0.8709291091 -0.9538799137 1.2944829326 0.8736675030 -0.9496965780 1.2980420524 0.8767552959 -0.9487349008 1.2969426474 0.8800305049 -0.9439993501 0.7007040257 0.2100270711 -0.5277269299 1.1420688625 0.4873498870 -0.3041957008 0.9941548834 0.6226051443 -0.1975166522 1.2770766306 0.1613998909 -1.0742394110 1.2702047937 0.1542983688 -1.0788716062 1.2655110258 0.1488095581 -1.0827865885 1.2819597212 0.1560249427 -1.0839673373 1.2624129715 0.1443689303 -1.0863671444 1.2762242712 0.1498125475 -1.0881349194 1.2606116816 0.1406115746 -1.0898928944 1.2727198931 0.1448208189 -1.0921799631 1.2600207750 0.1372828864 -1.0936249720 1.2711265651 0.1405836532 -1.0965054879 1.2607708140 0.1341747063 -1.0978892391 1.2411093374 0.1115891241 -1.1135960349 1.2546580685 0.1292277114 -1.1002353122 1.2512496919 0.1248801682 -1.1034868952 1.2452574269 0.1141644703 -1.1129634469 1.2632932664 0.1311511683 -1.1033007376 1.2499364244 0.1206694663 -1.1078437061 1.2588127303 0.1265155538 -1.1062194707 1.2506254043 0.1163016446 -1.1137534054 1.2570903777 0.1222521811 -1.1104761061 1.2610033277 0.0283128503 -0.7044444491 1.2502313191 0.0278111319 -0.6976350483 1.2942966731 0.2661368672 -1.0924405156 1.6894393887 0.2852766414 -0.6956014975 0.7699955806 0.6398804454 -0.6018785309 0.7603224598 0.6280526403 -0.6031801905 0.9145598097 0.6565868618 -0.6356834174 0.8890106033 0.5245614229 -0.7175506465 0.9796695070 0.4815686079 -0.8331013008 0.9668530965 0.4837775288 -0.8301625086 0.8867709570 0.3365006154 -0.3237687071 0.8863289481 0.3290762556 -0.3197296206 1.1372102212 0.7987136099 -0.3583830503 1.1480701369 0.0449230054 -0.4583178338 1.1327181362 0.0270962903 -0.3970801378 0.7985344857 0.4479484953 -0.4291216145 0.7919911337 0.4458994425 -0.4264740935 1.2598458455 -0.0278661557 -0.5585718730 1.0813046411 0.9044357997 -0.6938351819 1.0740541852 0.8990178516 -0.6926993149
        </DataArray>
      </Points>
      <Cells>
        <DataArray type="Int32" Name="connectivity" format="ascii">
 0 1 2 3 4 5 6 7 8 9 10 11 12 13 14 15 16 17 18 19 20 21 22 23 24 25 26 27 28 29 30 31 32 33 34 35 36 37 38 39 40 41 42 43 44 45 46 47 48 49 50 51 52 53 54 55 56 57 58 59 60 61 62 63 64 65 66 67 68 69 70 71 72 73 74 75 76 77 78 79 80 81 82 83 84 85 86 87 88 89 90 91 92 93 94 95 96 97 98 99 100 101 102 103 104 105 106 107 108 109 110 111 112 113 114 115 116 117 118 119 120 121 122 123 124 125 126 127 128 129 130 131 132 133 134 135 136 137 138 139 140 141 142 143 144 145 146 147 148 149 150 151 152 153 154 155 156 157 158 159 160 161 162 163 164 165 166 167 168 169 170 171 172 173 174 175 176 177 178 179 180 181 182 183 184 185 186 187 188 189 190 191 192 193 194 195 196 197 198 199 200 201 202 203 204 205 206 207 208 209 210 211 212 213 214 215 216 217 218 219 220 221 222 223 224 225 226 227 228 229 230 231 232 233 234 235 236 237 238 239 240 241 242 243 244 245 246 247 248 249 250 251 252 253 254 255 256 257 258 259 260 261 262 263 264 265 266 267 268 269 270 271 272 273 274 275 276 277 278 279 280 281 282 283 284 285 286 287 288 289 290 291 292 293 294 295 296 297 298 299 300 301 302 303 304 305 306 307 308 309 310 311 312 313 314 315 316 317 318 319 320 321 322 323 324
        </DataArray>
        <DataArray type="Int32" Name="offsets" format="ascii">
 1 2 3 4 5 6 7 8 9 10 11 12 13 14 15 16 17 18 19 20 21 22 23 24 25 26 27 28 29 30 31 32 33 34 35 36 37 38 39 40 41 42 43 44 45 46 47 48 49 50 51 52 53 54 55 56 57 58 59 60 61 62 63 64 65 66 67 68 69 70 71 72 73 74 75 76 77 78 79 80 81 82 83 84 85 86 87 88 89 90 91 92 93 94 95 96 97 98 99 100 101 102 103 104 105 106 107 108 109 110 111 112 113 114 115 116 117 118 119 120 121 122 123 124 125 126 127 128 129 130 131 132 133 134 135 136 137 138 139 140 141 142 143 144 145 146 147 148 149 150 151 152 153 154 155 156 157 158 159 160 161 162 163 164 165 166 167 168 169 170 171 172 173 174 175 176 177 178 179 180 181 182 183 184 185 186 187 188 189 190 191 192 193 194 195 196 197 198 199 200 201 202 203 204 205 206 207 208 209 210 211 212 213 214 215 216 217 218 219 220 221 222 223 224 225 226 227 228 229 230 231 232 233 234 235 236 237 238 239 240 241 242 243 244 245 246 247 248 249 250 251 252 253 254 255 256 257 258 259 260 261 262 263 264 265 266 267 268 269 270 271 272 273 274 275 276 277 278 279 280 281 282 283 284 285 286 287 288 289 290 291 292 293 294 295 296 297 298 299 300 301 302 303 304 305 306 307 308 309 310 311 312 313 314 315 316 317 318 319 320 321 322 323 324 325
        </DataArray>
        <DataArray type="UInt8" Name="types" format="ascii">
 1 1 1 1 1 1 1 1 1 1 1 1 1 1 1 1 1 1 1 1 1 1 1 1 1 1 1 1 1 1 1 1 1 1 1 1 1 1 1 1 1 1 1 1 1 1 1 1 1 1 1 1 1 1 1 1 1 1 1 1 1 1 1 1 1 1 1 1 1 1 1 1 1 1 1 1 1 1 1 1 1 1 1 1 1 1 1 1 1 1 1 1 1 1 1 1 1 1 1 1 1 1 1 1 1 1 1 1 1 1 1 1 1 1 1 1 1 1 1 1 1 1 1 1 1 1 1 1 1 1 1 1 1 1 1 1 1 1 1 1 1 1 1 1 1 1 1 1 1 1 1 1 1 1 1 1 1 1 1 1 1 1 1 1 1 1 1 1 1 1 1 1 1 1 1 1 1 1 1 1 1 1 1 1 1 1 1 1 1 1 1 1 1 1 1 1 1 1 1 1 1 1 1 1 1 1 1 1 1 1 1 1 1 1 1 1 1 1 1 1 1 1 1 1 1 1 1 1 1 1 1 1 1 1 1 1 1 1 1 1 1 1 1 1 1 1 1 1 1 1 1 1 1 1 1 1 1 1 1 1 1 1 1 1 1 1 1 1 1 1 1 1 1 1 1 1 1 1 1 1 1 1 1 1 1 1 1 1 1 1 1 1 1 1 1 1 1 1 1 1 1 1 1 1 1 1 1 1 1 1 1 1 1 1 1 1 1 1 1 1 1 1 1 1 1
        </DataArray>
      </Cells>
      <PointData Scalars="overlap">
        <DataArray type="Float32" Name="overlap" format="ascii">
 0.0001002217 0.0010355980 0.0001645602 0.0013428829 0.0001741335 0.0001607083 0.0001228942 0.0001503562 0.0000483955 0.0002163976 0.0003266568 0.0000944782 0.0001859925 0.0000147791 0.0002881094 0.0000368476 0.0002460789 0.0000507519 0.0000688933 0.0005005007 0.0002749288 0.0002157801 0.0001328056 0.0002826942 0.0002431720 0.0001988448 0.0006289135 0.0000731713 0.0000990013 0.0000139830 0.0000200289 0.0000862185 0.0000671037 0.0000784940 0.0003210106 0.0001226983 0.0003141895 0.0002147871 0.0005387278 0.0000257501 0.0003337039 0.0009304203 0.0001678150 0.0000062817 0.0000875207 0.0001448439 0.0001654186 0.0003427770 0.0001320088 0.0000452795 0.0002079434 0.0000829054 0.0000985035 0.0000616415 0.0001409533 0.0005729575 0.0000674773 0.0000788126 0.0000167517 0.0000841416 0.0000309457 0.0001303428 0.0001740275 0.0001906792 0.0000058614 0.0003499256 0.0000977467 0.0003402324 0.0001519253 0.0005210468 0.0002276135 0.0001041531 0.0000352723 0.0000027981 0.0000015648 0.0000420749 0.0000519933 0.0000571472 0.0000187989 0.0000479102 0.0000056812 0.0000138502 0.0000158973 0.0000819652 0.0000546940 0.0000271481 0.0000646062 0.0000163964 0.0000893323 0.0000710045 0.0001169418 0.0000409707 0.0000036476 0.0000726353 0.0000074108 0.0001357074 0.0000260065 0.0000405742 0.0000011691 0.0001559282 0.0001745090 0.0001648668 0.0000735519 0.0000308914 0.0001881320 0.0000414387 0.0000458998 0.0000653768 0.0000067983 0.0000627430 0.0000126333 0.0000461924 0.0001694729 0.0000427466 0.0000030454 0.0001090175 0.0000105585 0.0000119519 0.0000376360 0.0000612795 0.0000472817 0.0000740673 0.0000576952 0.0000885725 0.0000053177 0.0001075817 0.0001075548 0.0000244550 0.0001473795 0.0000130162 0.0002927773 0.0001903991 0.0003983654 0.0002799139 0.0002017818 0.0004387597 0.0009332103 0.0009561907 0.0000784288 0.0003226414 0.0007471025 0.0008967239 0.0004257947 0.0001441686 0.0005740972 0.0002581239 0.0001023704 0.0000060808 0.0000306445 0.0002272048 0.0003324985 0.0000520957 0.0002316512 0.0002468031 0.0000617123 0.0000737549 0.0000880084 0.0000398559 0.0000343274 0.0001289108 0.0001880860 0.0003253169 0.0001684857 0.0000001983 0.0002052741 0.0000615559 0.0005705498 0.0002820481 0.0001000274 0.0008427299 0.0004579211 0.0003676065 0.0009801054 0.0005786971 0.0001020319 0.0002363503 0.0008143950 0.0002920612 0.0006178523 0.0005378210 0.0008083468 0.0009668617 0.0008887379 0.0012616783 0.0003153610 0.0012610472 0.0003656494 0.0000008340 0.0000762368 0.0000033040 0.0000405966 0.0000780536 0.0000208701 0.0000170626 0.0000304422 0.0001128827 0.0000324068 0.0000369084 0.0000295286 0.0000544883 0.0000417738 0.0000200759 0.0000082269 0.0000980189 0.0000230453 0.0001377850 0.0000595204 0.0000922701 0.0000507382 0.0001587634 0.0001140920 0.0001534329 0.0000409571 0.0000507851 0.0001093129 0.0000329050 0.0003583057 0.0001996074 0.0000676971 0.0000313560 0.0001700022 0.0001400431 0.0001634637 0.0000263402 0.0000398718 0.0000465550 0.0000565919 0.0001594669 0.0001572038 0.0000101382 0.0000065323 0.0000703785 0.0000419377 0.0000086782 0.0000828983 0.0000264405 0.0001676970 0.0001700547 0.0000320781 0.0001392887 0.0000609257 0.0001509297 0.0001017973 0.0003988723 0.0017788217 0.0008145365 0.0004733123 0.0000617274 0.0001346951 0.0008561667 0.0002100173 0.0005799777 0.0004858746 0.0000965726 0.0000991106 0.0000582760 0.0000685657 0.0001522667 0.0000124607 0.0000685983 0.0001840463 0.0000900429 0.0000069081 0.0000040389 0.0000132363 0.0000154451 0.0000444843 0.0000862721 0.0000449727 0.0000499865 0.0000265987 0.0000248574 0.0000612090 0.0000827647 0.0000439925 0.0000064015 0.0000614618 0.0000044622 0.0000237354 0.0000106094 0.0000252510 0.0000266279 0.0000176530 0.0001108037 0.0000060012 0.0000340336 0.0000571080 0.0000540532 0.0002152092 0.0000639053 0.0002868221 0.0000988548 0.0002607975 0.0001630560 0.0001548127 0.0002564485 0.0000286497 0.0001465003 0.0001153906 0.0001213030 0.0001141176 0.0001545430 0.0001190510 0.0000425166 0.0000016712 0.0000402288 0.0000470065 0.0004460558 0.0000265493 0.0000769543 0.0000580672 0.0000577716 0.0000301759 0.0000090460 0.0000660978 0.0000226827 0.0000013550 0.0000135421 0.0000412239 0.0000863912 0.0000194542 0.0000283881 0.0001116106 0.0000234885 0.0000816433
        </DataArray>
        <DataArray type="Float32" Name="contact normal" NumberOfComponents="3" format="ascii">