<?xml version="1.0"?>
<VTKFile type="UnstructuredGrid" version="0.1" byte_order="LittleEndian">
  <UnstructuredGrid>
    <FieldData>
      <DataArray type="Float32" Name="TIME"  NumberOfTuples="1" format="ascii"> 1.8000000000 </DataArray>
      <DataArray type="Int32"   Name="STEP"  NumberOfTuples="1" format="ascii"> 180000 </DataArray>
    </FieldData>
    <Piece NumberOfPoints="277" NumberOfCells="277">
      <Points>
        <DataArray type="Float32" NumberOfComponents="3" format="ascii">
 5.0561575365 0.1687089371 -4.9372291078 5.1720631504 0.0952798109 -4.9274663902 5.1772798235 0.1083152343 -4.9111124842 5.1041780557 0.1055418342 -5.0475137091 5.1226804312 0.0955776592 -5.0426886779 5.1884123670 0.1069990197 -4.9283852518 5.2330971812 0.0891489539 -5.0781373926 5.2282238811 0.3235311327 -4.9069061912 5.2397985932 0.3190012380 -4.9148290601 5.2410198718 0.4090987154 -4.9221074342 5.3353760514 0.1667817387 -5.1239699247 5.3429634751 0.1737509894 -5.1243836914 5.3008441055 0.4304599909 -5.0157552231 5.3073920196 0.4321798719 -5.0296920919 5.3819038277 0.2325455593 -5.2064294998 5.2787797406 0.3734228287 -5.1923887866 5.2886344907 0.3717279239 -5.2022595368 5.3078486706 0.3885981572 -5.2112307052 5.4281111677 0.3794678944 -5.0753488505 5.4390332843 0.3723796991 -5.0845137146 5.4561683938 0.3666372795 -5.1806420827 5.7084476160 0.2508997876 -4.7398518374 5.6556470522 0.3107882020 -4.8272101465 5.6558863856 0.3067509387 -4.8359791607 5.7426337638 0.5102491350 -4.8962304553 5.7435096076 0.5024981055 -4.9170571500 5.7393204757 0.2833956030 -4.9574424107 5.7400484108 0.2972716712 -4.9648955359 5.6966173667 0.4653579784 -5.0223651965 5.6897712842 0.4462268499 -5.0083574384 4.8917861903 0.7374869632 -4.7506273896 4.9018662440 0.7391001162 -4.7487291726 4.9054931181 0.7302435977 -4.7549679286 4.8303436058 0.8226657410 -4.5812532778 4.8675012443 0.6533434220 -4.6670286557 4.9501722131 0.7589203355 -4.7143291293 4.8534698694 0.7151629710 -4.5363181758 4.8610552097 0.7096248196 -4.5393876772 5.2792781104 0.7146823587 -4.8428216326 5.3703516119 0.7213111126 -4.9130082968 5.2765723481 0.7094610175 -4.9619249077 5.2804479941 0.7135801395 -4.9652396213 5.2752358984 0.7154309777 -4.9683386152 5.1398038358 0.7264122023 -4.9095105850 5.3749706475 0.8291810271 -4.9625392926 5.2132945883 0.8101512509 -4.8787696847 5.2080483491 0.8113319994 -4.8840050527 5.2162677106 0.8156308900 -4.8839758093 5.2115322784 0.8170736026 -4.8895369253 5.2073151288 0.8190989249 -4.8957768623 5.1371864189 0.3809286511 -4.4623247301 4.9748956394 0.5719172974 -4.5531981862 5.2129957331 0.4568204005 -4.5134871892 5.2205977260 0.4570274511 -4.5232845831 5.2070807198 0.3727370654 -4.5684337178 5.2250442579 0.4729704652 -4.5218778118 5.2314284309 0.4721265661 -4.5305076391 5.1215318474 0.3857937086 -4.6766510253 5.0793566035 0.6650745509 -4.4095829429 5.0778376273 0.7078148143 -4.6217692520 5.2990333846 0.4581668257 -4.6538039461 5.3067294987 0.4695316114 -4.6541653397 5.1431242134 0.7946814838 -4.5088972437 5.2857201849 0.7524434979 -4.5505702328 5.2969637514 0.7710283199 -4.5613343264 5.2129995659 0.8477964950 -4.7124826210 5.4283344695 0.7096948574 -4.6848978314 5.6023517545 0.2893635919 -4.8263633583 5.6082371077 0.2876229219 -4.8386774205 5.5870836109 0.1400185661 -4.8392486656 5.2901153657 0.0351985138 -5.0342709029 5.4048658450 0.2109437588 -4.9919918564 5.4857181613 0.3464831007 -4.9659806970 5.4963509161 0.3541958324 -4.9638936170 5.3255055608 0.2705144584 -4.8599455049 5.3975059319 0.1706344784 -4.7520835095 5.2896002501 0.2069238736 -4.7811150176 4.8876923465 0.3785013698 -4.7668755161 4.8825587957 0.3728051325 -4.7567552161 4.8761608890 0.3697334758 -4.6590641968 4.8788877314 0.3946721416 -4.6372076184 4.8845639077 0.4036855745 -4.6313053817 4.8813965502 0.4117427122 -4.6225331223 4.8869127802 0.4187334634 -4.6184987731 4.8837890636 0.4255318555 -4.6108549151 4.8805553420 0.4322869986 -4.6032592044 4.8861092217 0.4379694746 -4.6004122076 4.8829466287 0.4448772251 -4.5926707327 4.8435274506 0.5360900025 -4.6636941600 4.8479965154 0.5412873313 -4.6651004446 4.9016468666 0.5749237616 -4.5345742185 4.8970973692 0.5839532487 -4.5425994413 4.9724976921 0.3094445874 -4.5925240381 5.0332487014 0.2316710252 -4.6924824730 5.0291970137 0.2228911694 -4.6898020154 5.0388203743 0.2325364978 -4.6960240209 5.0234668632 0.2167017983 -4.6860898069 5.0351577062 0.2224268280 -4.6935617990 5.0439276378 0.2351971688 -4.6992931236 5.0487963248 0.2398088672 -4.7024365252 5.0536576635 0.2468016177 -4.7056018039 5.0587967245 0.2570174042 -4.7089656008 4.9183271876 0.2310928207 -4.5490376395 5.0654944811 0.2555827173 -4.7131998216 5.1200736795 0.2482178408 -4.6480994417 5.1264581576 0.2563203964 -4.6526837251 5.1344091069 0.2534821732 -4.6566925929 4.9493775292 0.1572104706 -4.5486911432 4.9056689981 0.0828487743 -4.5792351447 4.9189693766 0.0601736990 -4.5899444917 4.9966875445 -0.0222443463 -4.5819798747 5.1238382290 0.0550577699 -4.6399518959 5.1359819651 0.0748855524 -4.6475696305 5.1415855503 0.0851093900 -4.6510729029 5.1482975960 0.0902116368 -4.6553958507 5.6285656543 0.1593949129 -5.0003344640 5.5834359578 0.0800670647 -5.0086937125 5.6603335861 0.0937680409 -4.8188341798 5.1896122782 0.1720525439 -4.5898184780 5.1407677378 0.2544713033 -4.5892487941 5.5135282321 0.6711246951 -4.7030996473 5.4609796994 0.6042068195 -4.8587542021 5.5570375835 0.6617209440 -4.8411458953 5.5542378887 0.6647327982 -4.8468195200 5.5574599524 0.6709736837 -4.8446300751 5.4808571026 0.7357923715 -4.8545479609 5.2344199726 0.4759426528 -4.8913626186 5.3082353761 0.4812970884 -4.8930891949 5.3126063777 0.5003030345 -4.8872281123 5.3213993945 0.4935479015 -4.8975308623 5.2037554425 0.5399513444 -5.0229975595 5.2068535580 0.5541942048 -5.0230808784 5.2156393501 0.5524678739 -5.0333668165 5.2172163799 0.5656903868 -5.0316440463 5.3955074921 0.6320808027 -4.9677359547 5.4039315635 0.6351607705 -4.9739887357 5.4517536463 0.4565732386 -5.0615475086 5.4591519522 0.4672052760 -5.0638001399 5.4126586800 0.6384337661 -4.9805137787 5.4663122928 0.4775581770 -5.0661349086 5.3114062036 0.7260823664 -5.0689621566 5.4220839514 0.6421415631 -4.9876555130 5.3188742010 0.7252526206 -5.0785982336 5.4327932110 0.6466443340 -4.9959217448 5.3830942411 0.7519787915 -5.0646343693 5.3885627447 0.6252654984 -5.1859211437 5.4873071246 0.5557616260 -5.1578775956 5.4016442719 0.6386549872 -5.1974858627 5.5460305611 0.6660573693 -5.0908295482 5.1396756210 0.6223325519 -5.0424241304 5.1403548269 0.6290388411 -5.0371552733 5.1455727085 0.6412429518 -5.0416435953 5.2776487004 0.0948868651 -4.6776730249 5.2746700515 -0.0024393162 -4.6166268746 5.1012121987 0.0889253656 -4.5445151092 5.1829236158 0.0335429066 -4.5354960194 5.1755768294 0.0364542804 -4.5309071597 5.1050536849 -0.0136688758 -4.5117746901 5.0960961153 -0.0055900000 -4.5207989462 5.7699816183 0.4089193574 -4.9064349795 4.9324343498 0.0925420128 -4.8237685621 4.9960352913 0.0329589986 -4.8573828962 5.0092405887 0.0288695638 -4.8548769750 5.0262740969 0.1217331361 -4.8823587831 5.0302228296 0.1249088121 -4.8811711920 5.0470729864 0.1483074810 -4.8140408683 5.0558570980 0.1538875989 -4.8157314700 4.8505478548 0.8451365194 -4.5013738642 5.1472023989 0.4383431987 -4.8617410457 5.3562411188 0.5682736865 -5.2277073400 5.3484568136 0.5723734239 -5.2230961284 5.4479054398 0.0543551151 -5.0552786839 5.4246979121 0.0634892625 -5.0113994968 5.4347107596 0.0682481881 -5.0109137768 5.4281466980 0.0696621263 -5.0066185234 5.5194305027 0.1044309261 -5.0676485819 5.5279459985 0.1178412823 -5.0664926286 5.3897306177 0.1747787813 -5.0949645100 5.3945671247 0.1786958771 -5.0952881867 5.3259460659 0.0974542839 -4.5600296620 5.3273812395 0.0986718837 -4.5693597464 5.6317121805 0.5884080512 -5.0568583894 5.5975746022 0.5811728833 -4.9664485199 5.5964390639 0.4566322903 -5.0326927836 5.5958901283 0.4519520117 -5.0372593311 5.5920136548 0.4493488994 -5.0326213016 5.5459925781 0.3669531483 -5.0994704701 4.9879128125 0.8314395758 -4.8272097798 5.5227426105 0.6270663309 -4.9412093208 5.4273269768 0.5726393540 -4.8790525450 5.4197642666 0.5764322677 -4.8729351533 4.9524239019 0.8215769838 -4.5130151931 4.9594579867 0.8207023738 -4.5093619119 4.9053056247 0.2183394071 -4.7899344410 4.9867887919 0.2219844683 -4.8873765633 4.9396016361 0.3610518373 -4.8244404641 5.0403944639 0.0815044656 -4.4996726247 5.0753770788 0.1217841248 -4.5197963374 5.3426337995 -0.0262581566 -4.6875198925 5.3105038042 -0.0038600418 -4.7900300012 5.3980420785 -0.0041401202 -4.8140366546 5.3637014642 -0.0045043937 -4.8416008961 5.1638721306 0.8209778243 -4.4338786133 5.4170955260 0.1829608548 -4.6614903385 5.4372735393 0.1163295588 -4.6957874919 5.4396244196 0.1151047264 -4.7010690716 5.3264365322 0.1183422956 -4.7089600111 5.5572746514 0.3103564045 -5.1883575341 4.9975227474 0.8155913438 -4.8825793658 5.3896669055 0.7340218938 -4.5806556213 5.3829780714 0.7336621205 -4.5037253419 4.9733115712 0.0173975714 -4.7826266112 4.9179606475 -0.0014308123 -4.8115144949 4.9119741827 -0.0024490023 -4.8152374405 5.2050138419 0.7737375008 -4.4303211572 5.0551189989 0.7483717922 -4.7732948499 5.1143246138 0.8723422131 -4.7391081745 5.1231749348 0.8738404592 -4.7510768057 5.0954051678 0.8501386055 -4.7678736452 4.8330492632 0.1453804094 -4.7108422532 4.9014481047 0.0743700726 -4.7867384379 5.4588555951 0.8790415785 -4.9692991476 5.5498752045 0.8679249638 -4.9179734463 5.4510295900 0.8816694565 -4.9604527280 5.5467628281 0.8464672301 -4.9168648624 5.5906362001 0.6337163645 -4.8871059503 5.5933815449 0.6376908274 -4.8893853645 5.5897885845 0.6400317590 -4.8920989396 5.5926061531 0.6447803828 -4.8949255098 5.6143749548 0.3544660874 -5.0214511481 5.4493967996 0.0305777300 -4.9414923023 5.4510650364 0.0253252447 -4.9482790613 5.5457123030 0.0191990586 -5.1046245960 5.5574599968 0.0049039555 -5.0574425000 5.5556629770 0.0076607800 -5.0478234387 5.0787873861 0.2732622958 -4.8985433692 5.4731469716 0.8392891220 -5.0824740685 5.4731524927 0.8478723877 -5.0817521890 5.3947876469 0.8732940230 -5.0570326120 5.4569231196 0.0059928021 -4.7419992302 4.9449647775 0.0635578132 -4.7600963133 4.8588009245 0.1304694355 -4.6917495584 5.2717414925 0.4275674970 -4.4411306853 5.1096052620 0.5406143518 -4.3255710536 5.3951300817 0.1042839639 -5.2952320767 5.4027606374 0.1148179473 -5.2870894547 5.4044537269 0.1197774111 -5.2816993932 5.4067344562 0.1237335327 -5.2781455739 5.4097043359 0.1270595539 -5.2760088068 5.4135765836 0.1299779174 -5.2751522582 5.4344206718 0.0139656304 -4.8741358805 5.4236954744 0.0119598784 -4.8675351787 5.4551393118 0.0201726961 -4.8841275015 5.3446636914 0.0263082068 -4.8423331037 5.4568546775 0.2820072523 -5.2548964514 4.8895424983 0.5692236700 -4.7314736756 4.8809905507 0.5567148863 -4.7338132151 5.0322266502 0.6015192122 -4.7618183699 5.0194172932 0.4745384452 -4.8540108553 5.0656366281 0.6785434031 -4.8116858341 5.0682860067 0.6751268492 -4.8129745165 5.1143111029 0.4488768537 -4.9712560556 5.1013204763 0.4497019964 -4.9683664268 5.1141299456 0.3819639193 -4.4186198764 5.0308580435 0.2570567745 -4.4758076205 5.0738315055 0.2351165017 -4.4214478757 5.0367365511 0.2481244295 -4.4786481473 4.8845727665 0.0074547827 -4.6923865272 5.2392969067 0.7408443235 -4.4711922705 5.3186884218 0.0010205698 -4.6291264450 5.3028419264 -0.0249389776 -4.5642435676 5.3028522709 -0.0238621465 -4.5603719334 4.9340616599 0.3677606726 -4.5736490419 4.9277110365 0.3649341636 -4.5712608480 5.4374060997 -0.0533637543 -4.7330351011 5.1764032996 0.8669729211 -4.7982816088 5.1696612577 0.8608586403 -4.7976737081
        </DataArray>
      </Points>
      <Cells>
        <DataArray type="Int32" Name="connectivity" format="ascii">
 0 1 2 3 4 5 6 7 8 9 10 11 12 13 14 15 16 17 18 19 20 21 22 23 24 25 26 27 28 29 30 31 32 33 34 35 36 37 38 39 40 41 42 43 44 45 46 47 48 49 50 51 52 53 54 55 56 57 58 59 60 61 62 63 64 65 66 67 68 69 70 71 72 73 74 75 76 77 78 79 80 81 82 83 84 85 86 87 88 89 90 91 92 93 94 95 96 97 98 99 100 101 102 103 104 105 106 107 108 109 110 111 112 113 114 115 116 117 118 119 120 121 122 123 124 125 126 127 128 129 130 131 132 133 134 135 136 137 138 139 140 141 142 143 144 145 146 147 148 149 150 151 152 153 154 155 156 157 158 159 160 161 162 163 164 165 166 167 168 169 170 171 172 173 174 175 176 177 178 179 180 181 182 183 184 185 186 187 188 189 190 191 192 193 194 195 196 197 198 199 200 201 202 203 204 205 206 207 208 209 210 211 212 213 214 215 216 217 218 219 220 221 222 223 224 225 226 227 228 229 230 231 232 233 234 235 236 237 238 239 240 241 242 243 244 245 246 247 248 249 250 251 252 253 254 255 256 257 258 259 260 261 262 263 264 265 266 267 268 269 270 271 272 273 274 275 276
        </DataArray>
        <DataArray type="Int32" Name="offsets" format="ascii">
 1 2 3 4 5 6 7 8 9 10 11 12 13 14 15 16 17 18 19 20 21 22 23 24 25 26 27 28 29 30 31 32 33 34 35 36 37 38 39 40 41 42 43 44 45 46 47 48 49 50 51 52 53 54 55 56 57 58 59 60 61 62 63 64 65 66 67 68 69 70 71 72 73 74 75 76 77 78 79 80 81 82 83 84 85 86 87 88 89 90 91 92 93 94 95 96 97 98 99 100 101 102 103 104 105 106 107 108 109 110 111 112 113 114 115 116 117 118 119 120 121 122 123 124 125 126 127 128 129 130 131 132 133 134 135 136 137 138 139 140 141 142 143 144 145 146 147 148 149 150 151 152 153 154 155 156 157 158 159 160 161 162 163 164 165 166 167 168 169 170 171 172 173 174 175 176 177 178 179 180 181 182 183 184 185 186 187 188 189 190 191 192 193 194 195 196 197 198 199 200 201 202 203 204 205 206 207 208 209 210 211 212 213 214 215 216 217 218 219 220 221 222 223 224 225 226 227 228 229 230 231 232 233 234 235 236 237 238 239 240 241 242 243 244 245 246 247 248 249 250 251 252 253 254 255 256 257 258 259 260 261 262 263 264 265 266 267 268 269 270 271 272 273 274 275 276 277
        </DataArray>
        <DataArray type="UInt8" Name="types" format="ascii">
 1 1 1 1 1 1 1 1 1 1 1 1 1 1 1 1 1 1 1 1 1 1 1 1 1 1 1 1 1 1 1 1 1 1 1 1 1 1 1 1 1 1 1 1 1 1 1 1 1 1 1 1 1 1 1 1 1 1 1 1 1 1 1 1 1 1 1 1 1 1 1 1 1 1 1 1 1 1 1 1 1 1 1 1 1 1 1 1 1 1 1 1 1 1 1 1 1 1 1 1 1 1 1 1 1 1 1 1 1 1 1 1 1 1 1 1 1 1 1 1 1 1 1 1 1 1 1 1 1 1 1 1 1 1 1 1 1 1 1 1 1 1 1 1 1 1 1 1 1 1 1 1 1 1 1 1 1 1 1 1 1 1 1 1 1 1 1 1 1 1 1 1 1 1 1 1 1 1 1 1 1 1 1 1 1 1 1 1 1 1 1 1 1 1 1 1 1 1 1 1 1 1 1 1 1 1 1 1 1 1 1 1 1 1 1 1 1 1 1 1 1 1 1 1 1 1 1 1 1 1 1 1 1 1 1 1 1 1 1 1 1 1 1 1 1 1 1 1 1 1 1 1 1 1 1 1 1 1 1 1 1 1 1 1 1 1 1 1 1 1 1 1 1 1 1 1 1
        </DataArray>
      </Cells>
      <PointData Scalars="overlap">
        <DataArray type="Float32" Name="overlap" format="ascii">
 0.0001283985 0.0001337924 0.0001122493 0.0000511715 0.0002390798 0.0000571380 0.0000446858 0.0000806143 0.0000439401 0.0001257700 0.0000570783 0.0002509060 0.0003321821 0.0000055345 0.0000047908 0.0000591983 0.0000289869 0.0003297807 0.0000076049 0.0002285067 0.0000992132 0.0001532944 0.0003285416 0.0002020140 0.0003140929 0.0001894231 0.0002872902 0.0002267765 0.0001138117 0.0004355815 0.0000520182 0.0000961132 0.0000099031 0.0002025203 0.0001443537 0.0000026228 0.0000864366 0.0000793940 0.0000545616 0.0002467383 0.0002461021 0.0005620681 0.0000629669 0.0001665104 0.0000923061 0.0001328362 0.0001819428 0.0002128906 0.0003817387 0.0001619924 0.0000841015 0.0001769738 0.0000627374 0.0000354258 0.0000037930 0.0000210824 0.0000984894 0.0002965371 0.0001928086 0.0000285581 0.0001329368 0.0000310152 0.0000150587 0.0000830474 0.0000441545 0.0001976851 0.0000228383 0.0000231212 0.0001094840 0.0000101714 0.0000181250 0.0001506461 0.0000522440 0.0000194634 0.0001373334 0.0000933260 0.0001018762 0.0000573409 0.0000310198 0.0000029034 0.0000404271 0.0000484505 0.0000544174 0.0000164882 0.0000443777 0.0000009049 0.0000096269 0.0000104221 0.0000979441 0.0000695497 0.0000389880 0.0000507155 0.0000286804 0.0000413203 0.0000293605 0.0000647408 0.0000057814 0.0000271178 0.0000788695 0.0000938128 0.0001061723 0.0000889362 0.0000521284 0.0001077466 0.0000041928 0.0000486148 0.0000052954 0.0000479145 0.0000285010 0.0000513099 0.0000085468 0.0000045800 0.0000906015 0.0000457009 0.0000177420 0.0000115277 0.0000190095 0.0000880487 0.0000174671 0.0000076254 0.0001904037 0.0000419898 0.0000584376 0.0001955975 0.0000295419 0.0002682335 0.0001485309 0.0001901935 0.0001586763 0.0000892260 0.0002720389 0.0001201737 0.0001021382 0.0000269657 0.0000105964 0.0000240774 0.0000831158 0.0002083860 0.0000339152 0.0001422889 0.0003098346 0.0000428995 0.0000574175 0.0000425982 0.0000360347 0.0000441226 0.0001105374 0.0002958565 0.0001369652 0.0000365829 0.0001455339 0.0000355855 0.0000281873 0.0000784738 0.0000900022 0.0000029923 0.0000164069 0.0000768509 0.0000070205 0.0000269895 0.0000043489 0.0000144800 0.0000079739 0.0000079718 0.0000008413 0.0000122788 0.0000026158 0.0000544864 0.0000313340 0.0001127077 0.0000753868 0.0000553403 0.0000188039 0.0000293485 0.0000845914 0.0000376864 0.0000065041 0.0002099851 0.0000332368 0.0000159130 0.0001901684 0.0000487256 0.0000346067 0.0001386655 0.0001052399 0.0001377504 0.0000980828 0.0000274813 0.0000385068 0.0000194801 0.0000315388 0.0000503461 0.0000566032 0.0002172186 0.0000920942 0.0001471423 0.0000109605 0.0000326987 0.0000039078 0.0000055029 0.0000131875 0.0000022972 0.0000163609 0.0000000338 0.0000607115 0.0000419431 0.0000351224 0.0000144515 0.0000317502 0.0000265350 0.0000519529 0.0001724736 0.0000832493 0.0001487856 0.0000326996 0.0000925019 0.0000505068 0.0000410728 0.0001272979 0.0000440382 0.0000770190 0.0001326870 0.0000101133 0.0000176981 0.0000566452 0.0000078711 0.0000039576 0.0000204060 0.0000215301 0.0000436544 0.0000824140 0.0000296015 0.0000214579 0.0000232188 0.0000482261 0.0000222890 0.0000402309 0.0000263126 0.0000008247 0.0000096521 0.0000538067 0.0000033843 0.0000791141 0.0000197753 0.0000456329 0.0000755429 0.0000392367 0.0000176116 0.0000147548 0.0000249240 0.0000253160 0.0000103388 0.0000241462 0.0000012263 0.0000324197 0.0000626770 0.0000144007 0.0000540390 0.0000132684 0.0000052783 0.0000011596 0.0000181904 0.0000142606 0.0000229586 0.0000169995 0.0000169272 0.0000036331 0.0000659901 0.0000116849 0.0000315353 0.0000410428 0.0000355139 0.0000192189 0.0000246254 0.0000840099 0.0000105536 0.0000574291
        </DataArray>
        <DataArray type="Float32" Name="contact normal" NumberOfComponents="3" format="ascii">
 0.5971735867 -0.0758710267 -0.7985156821 -0.5576459164 0.7197454344 -0.4135184899 -0.4657380589 0.8116185263 -0.3526519932 0.3380954720 0.9083756363 0.2460592513 0.5045595320 0.7475236971 0.4320046306 -0.4374105457 0.8040450024 -0.4027203106 -0.5877762931 0.7668450610 -0.2578132688 -0.6320560641 0.0635076035 -0.7723159432 -0.5267719268 0.0110622104 -0.8499346825 0.2697721662 -0.6826597551 -0.6791160704 -0.7441492371 0.6588058585 -0.1105294242 -0.6977680429 0.7047662430 -0.1281573294 -0.3063936190 -0.9295565865 -0.2050548771 -0.3001348973 -0.8282406781 -0.4732192120 -0.4368423708 0.3532083161 0.8272923477 0.5326576838 -0.5490080883 0.6441008546 0.5163281734 -0.5737850276 0.6357483459 0.5732003390 -0.4847042692 0.6606838448 -0.7177768893 0.1623575890 -0.6770792793 -0.6916117174 0.0105115820 -0.7221930068 -0.1857603264 -0.2007918218 0.9618605644 -0.9196278634 0.3234334264 -0.2228798143 0.9269672691 -0.2057713496 0.3136715379 0.9541126030 -0.1902811031 0.2312190362 -0.9809299834 -0.1838384157 -0.0630856927 -0.9748733938 -0.2024322169 -0.0929680784 -0.9645924930 0.1474138672 0.2187017928 -0.9229161601 0.3847254674 0.0145628360 0.9244224085 0.0238096103 0.3806262118 0.8976493923 -0.0976683515 0.4297516278 -0.1438565716 -0.6283279137 0.7645320920 -0.0679243461 -0.5988888449 0.7979463858 -0.1029764286 -0.6875803387 0.7187691792 0.2329862160 -0.9691559661 0.0803376411 0.3709287033 0.9286034515 0.0103695227 -0.5341259699 -0.5693981830 0.6248961174 0.1744677755 0.6368664091 -0.7509741488 0.2074308212 0.6030262698 -0.7702803206 -0.5347446499 -0.0636676632 -0.8426117659 -0.7709164817 0.6106919765 0.1809505130 -0.4833881606 0.5715741520 0.6630526939 -0.4214940240 0.5912358673 0.6875921298 -0.4578117739 0.5993706507 0.6566301872 0.7995540413 0.1718684224 0.5754776975 0.1399458230 -0.7590899408 0.6357653879 0.3357632944 -0.7868518199 -0.5178100266 0.3423299699 -0.7806271163 -0.5229067766 0.4368613176 -0.7199733364 -0.5392500200 0.4198699455 -0.7318443730 -0.5367616254 0.4080458165 -0.7398450163 -0.5349093040 0.0768832104 0.8610450266 -0.5026832343 0.7077733441 -0.4458908465 0.5479400026 -0.7663382858 0.2779229638 -0.5792102018 -0.7610431473 0.2578862847 -0.5952377609 -0.6014254133 0.7188009257 -0.3487301270 -0.7613177907 0.3223295396 -0.5625823402 -0.7602105601 0.2891549735 -0.5817811492 0.3701078767 0.4848150400 0.7924484441 -0.1721030810 -0.3643613727 -0.9152165425 0.4690859599 -0.8826739945 -0.0290685688 -0.8998037905 0.3406828768 -0.2725588305 -0.7851933691 0.6111023395 0.1001264391 0.2127321490 -0.5251217928 -0.8240097909 -0.6029047186 -0.1503281341 -0.7835224007 -0.4646279480 -0.1329144408 -0.8754739410 0.4250808923 -0.7682201812 0.4786898664 -0.7916342917 -0.0498239081 -0.6089603652 0.7861617280 -0.4049253119 0.4668888832 0.7909678174 -0.3993408858 0.4635695944 -0.6711784919 0.7369337547 -0.0802998954 -0.0094348086 -0.4925865207 0.8702123327 0.1182373973 0.5735476761 0.8105942148 -0.3225647683 -0.8273722062 0.4597903900 0.7336220990 -0.4154003425 0.5378114644 0.7297507771 -0.3100097857 0.6093912833 -0.3365686936 0.6437741221 -0.6872236857 0.8572207583 0.4830828053 -0.1783355679 0.0123976938 0.9072507974 0.4204072881 -0.1631943976 0.6304497010 0.7588812576 -0.3090243266 0.6455692483 -0.6983869352 -0.3090666267 0.6455821479 -0.6983562920 -0.2594486247 0.6498226434 -0.7144347019 -0.3090820813 0.6455805382 -0.6983509402 -0.3089874913 0.6455903890 -0.6983836910 -0.3090862515 0.6455801038 -0.6983494961 -0.3091860701 0.6455697007 -0.6983149258 -0.3090862361 0.6455801054 -0.6983495015 -0.3091853758 0.6455697734 -0.6983151661 0.7052509090 -0.5342002438 0.4661021936 0.7068485353 -0.5275957848 0.4711770750 -0.2933230689 -0.9073967614 -0.3009862034 0.2437039399 -0.5025205008 -0.8295068028 -0.2585098679 -0.2237770871 -0.9397321233 0.5315390920 0.0134182329 0.8469274731 0.5318622393 0.0130358147 0.8467305510 0.5319992134 0.0128739998 0.8466469731 0.5318162585 0.0130902360 0.8467585919 0.5324578857 0.0123304282 0.8463666820 0.5322669271 0.0125569177 0.8464834565 0.5323586001 0.0124580155 0.8464272673 0.5323477628 0.0126926817 0.8464305969 0.5319332338 0.0132429514 0.8466827381 -0.5490182028 -0.1992315381 -0.8117178125 0.5332175002 0.0138320608 0.8458651025 -0.4964107298 -0.0949189443 -0.8628828318 -0.5001442991 -0.0881837368 -0.8614402525 -0.4838187202 -0.1148249708 -0.8676028308 -0.2227148658 -0.2525124611 -0.9416132675 0.8655382740 0.4992057743 0.0404609833 0.8861218938 0.4523393563 -0.1008815942 -0.2601984878 0.4630795251 -0.8472627104 -0.5317771691 -0.0076130199 -0.8468500956 -0.5325048967 -0.0040160973 -0.8464173946 -0.5529264063 0.0228543254 -0.8329166039 -0.5328417543 -0.0030750393 -0.8462093175 0.6177609234 -0.7511232899 0.2327772432 0.8195435967 0.1172632640 0.5608900248 -0.6569401198 0.5074124224 -0.5576399489 -0.0541803310 0.5678417297 0.8213527024 0.7067825778 -0.5867400491 0.3952145019 0.3798348742 0.2327534224 -0.8952939812 0.6899429612 0.7214909399 -0.0585622226 -0.7935113377 0.2537066039 0.5531480056 -0.7955510793 0.2519408807 0.5510211184 -0.7910409422 0.2565922487 0.5553509213 0.5911869771 -0.6939917558 0.4109420896 0.1697152895 0.9370780308 -0.3050925838 -0.7924787748 -0.4548343518 -0.4063288125 -0.3844797438 0.6269689438 -0.6775583149 -0.3463692602 0.5899158528 -0.7294022362 0.7209895789 -0.1483662608 0.6768762663 0.7209476986 -0.1483410346 0.6769264017 0.7513914519 -0.1670493230 0.6383615039 0.7513298348 -0.1670106064 0.6384441532 -0.3998530135 -0.4865653596 -0.7767700550 -0.4000613891 -0.4864811166 -0.7767155259 -0.7520174223 0.4076361636 -0.5179792994 -0.7520227313 0.4076450684 -0.5179645835 -0.4001849872 -0.4862900494 -0.7767715004 -0.7520274327 0.4076529538 -0.5179515516 0.2627205230 -0.9302364506 0.2561992831 -0.4005105203 -0.4860292334 -0.7767669582 0.3145728662 -0.9413198008 0.1223149396 -0.4014799645 -0.4861874881 -0.7761672272 0.1143867618 -0.8890081078 0.4433737170 0.5504614701 0.0481328540 0.8334718942 -0.7120090835 0.4025473465 0.5753248637 0.6411664255 0.2212540299 0.7348144453 -0.8998469217 0.4123868464 0.1421710463 -0.9182254791 0.3010057895 -0.2574052919 -0.9358788065 0.3354479928 -0.1077288433 -0.9378987644 0.3165378137 -0.1419497102 -0.4651481561 0.3179831041 0.8261500701 -0.8887354795 0.4429909884 -0.1179331664 -0.0127798645 -0.4185307451 -0.9081127080 -0.4521753927 0.0047113625 -0.8919165977 -0.5076822802 0.0502500378 -0.8600776919 0.6839903076 0.3236165252 -0.6537810060 0.6974878317 0.1009738322 -0.7094469747 -0.8592282980 0.5000303528 0.1081497954 0.6244631900 -0.4472539387 -0.6403199502 0.2734989049 0.9616261905 0.0217581890 0.2799593808 0.9548740112 0.0991885472 0.0055005635 -0.3680586858 0.9297862914 0.0095983679 -0.3718892945 0.9282274635 -0.1801139838 -0.3512232127 -0.9188042271 0.4576245500 -0.5611833223 -0.6896760472 -0.3982975390 0.4065024556 -0.8222620167 0.9581454954 0.2758325332 -0.0766395677 0.5734945642 0.7652157390 0.2924873633 0.5264181878 0.8125620962 0.2502533346 0.0397832559 0.9060460578 0.4213049177 -0.3830082252 0.6646607353 -0.6415066690 -0.3191557389 0.6945691704 -0.6447583127 -0.3435652940 0.6847494736 -0.6427138144 -0.8104770800 0.4961033467 -0.3114616704 -0.7948034465 0.5340660733 -0.2882028986 0.4475950680 -0.6370023291 0.6276039259 0.4493776367 -0.6278043799 0.6355481101 -0.7461251523 0.6644116518 -0.0430629088 -0.7541407713 0.6535154885 -0.0647240551 -0.5875597907 -0.7775355572 0.2240802302 0.1739361996 -0.5899513931 -0.7884818021 -0.7460371917 0.6655101964 -0.0229060470 -0.7478278638 0.4296024290 -0.5061573264 -0.8328716391 0.3246063980 -0.4482806255 -0.6646051948 0.6781348767 0.3137403769 -0.6859689688 -0.5793240621 0.4402615188 -0.8136364655 0.4235346019 -0.3982639112 -0.2898736457 0.5701040917 -0.7687357115 -0.3291570459 0.6062648078 -0.7239465601 -0.4225421626 0.2515723438 0.8707292786 -0.4219087476 0.2459478647 0.8726411958 0.6548835131 0.7555065377 -0.0183699690 -0.6317819849 0.1102024642 0.7672724030 -0.5794189271 -0.8149640830 0.0103561734 -0.4940258740 -0.2281739935 -0.8389726244 -0.2047100311 -0.2185010579 -0.9541232053 -0.2773247920 0.5645596716 -0.7774080891 0.8360009924 -0.4179771764 0.3555241493 -0.9271744201 0.3681075232 0.0696020551 0.3848096754 -0.6968255670 0.6052731969 -0.1446526118 0.0151900905 -0.9893658995 -0.3333739731 -0.8716595964 -0.3592650026 -0.7486125113 0.5117435673 -0.4215422034 -0.6587436813 0.5826907055 -0.4759498965 0.8822816511 -0.2695452921 0.3859072734 0.2163106505 -0.2938686166 0.9310483009 0.5205548023 0.0859916607 0.8494869817 0.7635497878 0.0737858895 0.6415195742 0.0407055565 -0.1595922719 -0.9863434313 -0.2589973661 -0.6907875478 -0.6750799421 0.3343019716 0.6592886112 -0.6734840154 0.2996562444 0.6272736586 -0.7188420497 -0.0717797010 0.1626464301 0.9840700246 -0.2922025341 0.9020082116 -0.3178031865 -0.9138251863 -0.0871008468 -0.3966572468 -0.8731564335 0.1467036822 -0.4648396199 0.3862379952 -0.4114465470 0.8255494837 -0.4466232494 0.4857159656 -0.7514038021 -0.4462122717 0.2410821046 -0.8618433891 0.7710805349 -0.4591390958 0.4411644810 -0.8756254658 0.1071553610 -0.4709541084 0.6990318840 0.1252719303 0.7040322213 -0.8460482081 0.0980882920 -0.5240048821 0.1952045404 -0.5935896970 -0.7807345638 0.1993597322 -0.5920747718 -0.7808349133 0.1957598134 -0.5930270034 -0.7810230910 0.1994702619 -0.5901789957 -0.7822406073 -0.4369055716 0.8985345456 0.0418233414 -0.5315820627 0.4668559809 -0.7067290879 -0.5350170966 0.4523676422 -0.7135266096 0.6842675909 0.3961760713 0.6122273961 -0.2377143239 0.8490452822 -0.4718198903 -0.2448528733 0.8721143575 -0.4236314647 -0.3822453873 -0.8985372650 0.2156832106 0.9959392221 -0.0731218544 -0.0525191419 0.8316574253 0.2641935934 -0.4884134234 0.4623389893 -0.7119188354 0.5285964725 0.3510409252 0.8433520649 0.4068507876 0.1280255097 0.8252372757 0.5500844550 0.8586739308 0.3105474628 -0.4077246054 -0.7321203069 0.3654520630 -0.5748431490 -0.3514336793 0.6036393477 -0.7156213433 0.4319110885 -0.7269837649 0.5338046620 0.4320686751 -0.7267787648 0.5339562595 0.4320414020 -0.7267627277 0.5340001542 0.4320312414 -0.7267616965 0.5340097780 0.4320444874 -0.7267620850 0.5339985324 0.4320827041 -0.7267631853 0.5339661125 -0.4249625536 0.8177425940 -0.3882059736 -0.3908510542 0.8984342518 -0.2001283303 -0.3328843924 0.9262463860 -0.1767925724 0.8761841736 -0.3982283114 0.2715059962 0.8752652227 -0.2764996431 -0.3968107072 0.6048700499 -0.1441480787 -0.7831689180 0.5286472178 -0.3228493884 -0.7850480186 -0.4349389977 -0.8823296902 0.1797842763 -0.5676563558 0.8164028691 -0.1060783533 0.3182241138 -0.0533716673 0.9465119537 0.3289465224 -0.0920571489 0.9398508747 0.2452108028 -0.2570917086 0.9347596031 0.1971899379 -0.2543545667 0.9467945304 -0.5413439527 -0.0369305784 -0.8399897959 0.6341277328 0.3052063800 0.7104442865 -0.0660327063 0.8271273083 -0.5581219379 0.7769000191 0.3011868297 0.5529130618 -0.5736975529 0.4858477447 0.6594111667 -0.4956347419 -0.0826931044 -0.8645854805 -0.9153880604 0.3105346315 0.2561892689 -0.8951010645 0.4177066181 -0.1559335290 -0.8998750522 0.4240690951 -0.1019327866 -0.4678820099 0.5663991070 -0.6784382627 -0.5087565825 0.5472984824 -0.6645533168 -0.0645141612 0.2456016276 -0.9672216724 0.4001879728 -0.3132804501 0.8612229363 0.3953220106 -0.3625525934 0.8439645283
        </DataArray>
        <DataArray type="Float32" Name="contact force" NumberOfComponents="3" format="ascii">