<?xml version="1.0"?>
<VTKFile type="UnstructuredGrid" version="0.1" byte_order="LittleEndian">
  <UnstructuredGrid>
    <FieldData>
      <DataArray type="Float32" Name="TIME"  NumberOfTuples="1" format="ascii"> 2.4000000000 </DataArray>
      <DataArray type="Int32"   Name="STEP"  NumberOfTuples="1" format="ascii"> 240000 </DataArray>
    </FieldData>
    <Piece NumberOfPoints="277" NumberOfCells="277">
      <Points>
        <DataArray type="Float32" NumberOfComponents="3" format="ascii">
 8.2885575142 0.1511583028 -9.7698153018 8.3094714016 0.1023151671 -9.8948293978 8.4216664645 0.0998202069 -9.8016421225 8.4265929245 0.0992046999 -9.9588483659 8.4538243162 0.3160143721 -9.7677136721 8.4631533376 0.3131690450 -9.7787648644 8.4574959135 0.4033589629 -9.7763293801 8.5089277224 0.1886741156 -10.0205329835 8.5157499364 0.1962428312 -10.0221081922 8.4894995644 0.4378440078 -9.8792447307 8.4920696998 0.4413337879 -9.8941239641 8.5286121153 0.2651590247 -10.1045056508 8.4251842372 0.3953990629 -10.0495454573 8.4322003430 0.3953999366 -10.0617189271 8.4474581783 0.4145017381 -10.0734007380 8.5993613167 0.4029036066 -9.9744164737 8.6078809185 0.3975777334 -9.9867691146 8.5995817419 0.4019402924 -10.0841360283 8.9642112297 0.2677005448 -9.7373807799 8.8872721731 0.3307495202 -9.8014231057 8.8854169594 0.3275537260 -9.8103478834 8.9422017965 0.5420003396 -9.8683852253 8.9378715624 0.5362112569 -9.8894349010 8.9353185700 0.3220456215 -9.9508360657 8.9333139095 0.3365518926 -9.9566879198 8.8672695190 0.5050780111 -9.9827172762 8.8653844390 0.4842724537 -9.9695763758 8.1607223134 0.6791900740 -9.4952623398 8.1274310945 0.7504004276 -9.3114620777 8.1373759307 0.7527735359 -9.3164414237 8.1282620997 0.7500832961 -9.2996340985 8.1387418368 0.7527337616 -9.3053745933 8.1513371739 0.5923138022 -9.4091958457 8.1683042461 0.6412671129 -9.2735218416 8.1751278746 0.6366608737 -9.2789897322 8.2682537654 0.6854184640 -9.3649884974 8.2683049173 0.6846098360 -9.3573943832 8.2727695051 0.6775847226 -9.3627159706 8.5048049976 0.6999028396 -9.6808509778 8.4983559408 0.7025886226 -9.6769514081 8.5010482845 0.7098811898 -9.6760512114 8.5674132389 0.7229218532 -9.7668394895 8.4649027632 0.7080189774 -9.7912547420 8.4675479143 0.7127198022 -9.7949832570 8.4616134769 0.7144172228 -9.7964322952 8.3459035575 0.7090163246 -9.7042237560 8.5530430050 0.8348365180 -9.8038688234 8.4201766001 0.7952839283 -9.6842904273 8.4136880320 0.7965057836 -9.6878585582 8.4213812077 0.8014350439 -9.6894550597 8.4152856861 0.8029880344 -9.6934378972 8.4094802484 0.8052227075 -9.6981419331 8.4793561822 0.3255002322 -9.3113130077 8.2887220697 0.5102108394 -9.3366097913 8.5348522231 0.4115936722 -9.3716097824 8.5396030013 0.4132967744 -9.3829391435 8.5193441635 0.3326272792 -9.4319902154 8.5433849029 0.4293551400 -9.3809973019 8.5473250232 0.4298112336 -9.3910080201 8.4078939895 0.3484423399 -9.5127219499 8.5809603271 0.4325396744 -9.5282285580 8.5790912474 0.7142599739 -9.3938120387 8.5860770343 0.7345857134 -9.4050270431 8.4614066512 0.8176575444 -9.5205383852 8.6836520021 0.6954706830 -9.5638827611 8.8373599667 0.3050569093 -9.7892924339 8.8399054776 0.3049545704 -9.8028127097 8.7962263044 0.1224454371 -9.6824849016 8.8273676767 0.1568342952 -9.8144159048 8.5139132083 0.0528860983 -9.9408158815 8.4994660356 0.0905415897 -9.6777137985 8.6080931217 0.2262287685 -9.9067460839 8.7353445001 0.1282774242 -9.8358406690 8.6853682598 0.3649241832 -9.8876953962 8.5628321078 0.2669985825 -9.7532542468 8.6658940135 0.1639328795 -9.6787125321 8.5523131791 0.1938381852 -9.6752249858 8.1592598292 0.3304839404 -9.5405789905 8.1572712945 0.3235043232 -9.5301489010 8.1768259676 0.3110777255 -9.4349980363 8.1844109923 0.3240756632 -9.4253292841 8.1838073383 0.3340709595 -9.4119838096 8.1903268961 0.3429435696 -9.4067810125 8.1891298258 0.3498882159 -9.3966696018 8.1951162907 0.3569108306 -9.3934414949 8.1937357795 0.3627107205 -9.3845611893 8.1980227011 0.3742979128 -9.3737682811 8.1360103967 0.4717977085 -9.4204582630 8.1350722873 0.4739759242 -9.4130927490 8.1387248715 0.4796249977 -9.4150189924 8.2227153951 0.5055215715 -9.2996138808 8.2157436746 0.5148511441 -9.3051954600 8.2903839659 0.2529354306 -9.4020704471 8.3270644347 0.1896906395 -9.5220089492 8.3243420545 0.1804053064 -9.5193522317 8.3314603098 0.1913209868 -9.5267368922 8.3201299306 0.1734621459 -9.5149963173 8.3291286574 0.1807668925 -9.5245328863 8.3353814639 0.1946710355 -9.5308904557 8.3389986191 0.1999270135 -9.5346512729 8.3424724457 0.2075478306 -9.5381734681 8.3459853239 0.2184082964 -9.5416081926 8.2538537722 0.1668481381 -9.3549668018 8.3514113486 0.2179092797 -9.5475374608 8.4214251487 0.2091341642 -9.4996694265 8.4259362647 0.2181082615 -9.5048215309 8.4327079537 0.2162973658 -9.5110029201 8.2879024122 0.0959909643 -9.3705522850 8.2418723596 0.0213986761 -9.3968232392 8.2531279770 0.0009330045 -9.4129524968 8.3346326512 -0.0752975265 -9.4340043739 8.4377716525 0.0169702134 -9.5137094205 8.4463958022 0.0383233374 -9.5219743570 8.4503189262 0.0492420772 -9.5256608795 8.4553778889 0.0552407957 -9.5309707539 8.8246200471 0.1943319106 -9.9771262919 8.9058278079 0.1149679135 -9.8178902380 8.5082946210 0.1347163718 -9.4701034378 8.5088787570 0.1802117202 -9.4023612831 8.5124023339 0.1354206116 -9.4714332532 8.5979087193 0.1497749781 -9.4391056474 8.5454339757 0.2553321800 -9.4541213943 8.7633400651 0.6658137429 -9.6068497530 8.7715497775 0.6795415382 -9.6020651890 8.6753370592 0.6091377013 -9.7501271673 8.7693671004 0.6723690579 -9.7516986553 8.7650141642 0.6756416437 -9.7561081906 8.7683503595 0.6819015375 -9.7541545166 8.6884540683 0.7409885478 -9.7370567097 8.4554163484 0.4664052787 -9.7379479345 8.5258385111 0.4778395617 -9.7577848369 8.5305388869 0.4965000273 -9.7512005844 8.5366803597 0.4914482889 -9.7640778385 8.3849955468 0.5234569419 -9.8482615553 8.3878961785 0.5393952707 -9.8498013447 8.3941890386 0.5393891763 -9.8623141645 8.5822292684 0.6412861554 -9.8354021660 8.5885470682 0.6455868834 -9.8432212121 8.6215185066 0.4800841481 -9.9588471198 8.6274796105 0.4914388006 -9.9617429269 8.5950752976 0.6501282212 -9.8513581398 8.6332051835 0.5025046215 -9.9646874306 8.6020916013 0.6552130941 -9.8602183429 8.4744516600 0.7373704107 -9.9123724019 8.6100082912 0.6612920579 -9.8703999617 8.5384411371 0.7680523539 -9.9124007220 8.5189437451 0.6536891899 -10.0440776251 8.6252238393 0.5901235538 -10.0497295003 8.5278133893 0.6690808951 -10.0570595662 8.6932958559 0.6982837827 -9.9882805633 8.5739044669 0.0723496263 -9.5847483381 8.5923457571 -0.0300258944 -9.5358708198 8.4390251665 0.0401464613 -9.4125281169 8.5231548452 -0.0090380027 -9.4306501217 8.4568978264 -0.0643357334 -9.3931357433 8.9712826587 0.4445458018 -9.8961397245 8.2725082276 0.0322708400 -9.6546107541 8.2664148027 0.0032667617 -9.6985711990 8.2782578081 0.0322457024 -9.6565946491 8.2796837731 0.0008382730 -9.6998915034 8.2669996420 0.0977533225 -9.7112058245 8.2701724066 0.0958836443 -9.7132356038 8.2733639302 0.0940396758 -9.7152057675 8.2736336202 0.0990548297 -9.7126349028 8.2769184261 0.0972320401 -9.7146435947 8.2774023672 0.1023670963 -9.7120630183 8.2808601575 0.1005934989 -9.7141420437 8.3131304938 0.1186443635 -9.6511418809 8.3208812364 0.1250467079 -9.6543296348 8.1669804194 0.7662759967 -9.2253269551 8.5028761928 0.3320193573 -9.7152205981 8.4799912922 0.5982449654 -10.0821358095 8.4734483424 0.6012914570 -10.0753115552 8.6414817983 0.0799760529 -9.9953336678 8.6300859077 0.0832102780 -9.9462773126 8.6396032227 0.0886981492 -9.9478447820 8.6343228732 0.0891843476 -9.9418933966 8.7044343287 0.1365732584 -10.0200268161 8.5684556163 0.1983791055 -10.0056539674 8.5728177091 0.2026872414 -10.0067730682 8.6503745799 0.0680318662 -9.4842119955 8.6491361759 0.0701489188 -9.4934083548 8.7102448410 0.1702679260 -9.5102216245 8.6987310472 0.1758266089 -9.5037987716 8.7889724017 0.6250944742 -9.9858922923 8.7801286750 0.6069871907 -9.8911021202 8.7684995827 0.4892637541 -9.9679474321 8.7670323304 0.4849847507 -9.9727042524 8.7646524667 0.4816680076 -9.9675413438 8.7178662765 0.4170555915 -10.0311127180 8.9247691433 0.0557927177 -9.8803234869 8.7120677331 0.6442159551 -9.8428547540 8.6393361894 0.5768751896 -9.7647243957 8.6334455932 0.5794696336 -9.7565035758 8.2636994732 0.7526820034 -9.2651554033 8.2714815934 0.7520548664 -9.2635322298 8.1791431389 0.1749283162 -9.5844027367 8.2328187680 0.1939845446 -9.6980274108 8.4187592771 0.0684092282 -9.3786192669 8.6320530066 -0.0482806082 -9.6237069203 8.6285975830 -0.0558407160 -9.6288889301 8.5784655829 -0.0075557504 -9.6549684869 8.6289586308 0.0096158774 -9.7628196915 8.6235491641 0.0047253917 -9.7648394951 8.6594785505 -0.0123135759 -9.7591852556 8.4881758453 0.7618715960 -9.2429238458 8.7076823012 0.1696056929 -9.5951694074 8.7227397367 0.1076614325 -9.6462825416 8.7191865101 0.1027236872 -9.6416885834 8.6114499223 0.1024106005 -9.6247002941 8.4784707871 0.1045572567 -10.0515334726 8.6722241926 0.7070702650 -9.4509478022 8.6858456833 0.6992161962 -9.3753890142 8.6886301460 0.7296639649 -9.3786072906 8.7346189613 0.1741136418 -10.1429738179 8.2534226406 -0.0231659186 -9.7799879443 8.2987866856 0.7117651520 -9.5491737107 8.3333237166 0.8156032331 -9.5432237688 8.1828879306 -0.0334179441 -9.5687779027 8.1792990573 -0.0368744740 -9.5620076130 8.1339961757 0.0895502647 -9.4979724640 8.1839634188 0.0314402398 -9.5959865083 8.4921923459 0.8932488682 -9.9616933964 8.4913102473 0.8960406576 -9.9547017956 8.6293742892 0.8916899385 -9.8263063667 8.7311100925 0.8833867381 -9.8013545863 8.6239944389 0.8928661274 -9.8155327786 8.7295793966 0.8617350584 -9.8018160558 8.7888065849 0.6580788433 -9.8113065889 8.7905245112 0.6632732572 -9.8142296213 8.7861109683 0.6663261004 -9.8161418313 8.7943207256 0.3882893106 -9.9727399988 8.6739344912 0.0462187888 -9.8889360603 8.6740556270 0.0417529976 -9.8964508460 8.6478316950 0.0479065273 -9.9721976950 8.7707865250 0.2049384288 -10.0119610803 8.7247876714 0.0574732261 -10.0714792042 8.7491866422 0.0399657703 -10.0306595729 8.7498191565 0.0416669616 -10.0206532722 8.3148079358 0.2532686466 -9.7270475367 8.6157778546 0.8636172161 -9.9429722616 8.6155077616 0.8720750357 -9.9413557126 8.5454858129 0.8870391183 -9.8996901620 8.5450270188 0.8887147666 -9.8949572246 8.5446357739 0.8904701957 -9.8901429594 8.5479237036 0.8939029332 -9.8894139962 8.5476956140 0.8961013168 -9.8839847989 8.7333890796 0.0074436321 -9.7069009862 8.1646633617 0.0750482318 -9.4878017793 8.6119194049 0.3807745002 -9.3199959711 8.6174365987 0.3889199484 -9.3260745118 8.4812150861 0.4695573671 -9.1569735600 8.3292102099 0.5035081377 -9.8389259219 8.3365027640 0.4974010637 -9.8444022298 8.5251730938 0.1469640655 -10.2071035548 8.5340795965 0.1572994577 -10.2000788711 8.5368487016 0.1618716231 -10.1947927614 8.5397593014 0.1656611934 -10.1915293519 8.5429983588 0.1690089493 -10.1898712126 8.5467949832 0.1721405107 -10.1897169955 8.6780397602 0.0224498063 -9.8221926912 8.6695429136 0.0189924112 -9.8133341559 8.6950490409 0.0311972970 -9.8363983652 8.5854881526 0.3246901326 -10.1647652035 8.2082621372 0.4064709680 -9.6491657888 8.1598388298 0.5166674158 -9.4863747189 8.1516712389 0.5037684936 -9.4878006032 8.2876362390 0.5630358316 -9.5483502408 8.5329767643 0.4327786604 -10.2093097016 8.3025878193 0.6467117798 -9.5964411806 8.3049904422 0.6436510176 -9.5987248724 8.3203567143 0.4369077043 -9.7870400441 8.6312681612 -0.0218749197 -9.5587098586 8.2497912257 0.3025642652 -9.3643500868 8.7215204776 -0.0569058307 -9.6946879579 8.4025353365 0.8415357165 -9.5913726593 8.3965327377 0.8348652108 -9.5897329063
        </DataArray>
      </Points>
      <Cells>
        <DataArray type="Int32" Name="connectivity" format="ascii">
 0 1 2 3 4 5 6 7 8 9 10 11 12 13 14 15 16 17 18 19 20 21 22 23 24 25 26 27 28 29 30 31 32 33 34 35 36 37 38 39 40 41 42 43 44 45 46 47 48 49 50 51 52 53 54 55 56 57 58 59 60 61 62 63 64 65 66 67 68 69 70 71 72 73 74 75 76 77 78 79 80 81 82 83 84 85 86 87 88 89 90 91 92 93 94 95 96 97 98 99 100 101 102 103 104 105 106 107 108 109 110 111 112 113 114 115 116 117 118 119 120 121 122 123 124 125 126 127 128 129 130 131 132 133 134 135 136 137 138 139 140 141 142 143 144 145 146 147 148 149 150 151 152 153 154 155 156 157 158 159 160 161 162 163 164 165 166 167 168 169 170 171 172 173 174 175 176 177 178 179 180 181 182 183 184 185 186 187 188 189 190 191 192 193 194 195 196 197 198 199 200 201 202 203 204 205 206 207 208 209 210 211 212 213 214 215 216 217 218 219 220 221 222 223 224 225 226 227 228 229 230 231 232 233 234 235 236 237 238 239 240 241 242 243 244 245 246 247 248 249 250 251 252 253 254 255 256 257 258 259 260 261 262 263 264 265 266 267 268 269 270 271 272 273 274 275 276
        </DataArray>
        <DataArray type="Int32" Name="offsets" format="ascii">
 1 2 3 4 5 6 7 8 9 10 11 12 13 14 15 16 17 18 19 20 21 22 23 24 25 26 27 28 29 30 31 32 33 34 35 36 37 38 39 40 41 42 43 44 45 46 47 48 49 50 51 52 53 54 55 56 57 58 59 60 61 62 63 64 65 66 67 68 69 70 71 72 73 74 75 76 77 78 79 80 81 82 83 84 85 86 87 88 89 90 91 92 93 94 95 96 97 98 99 100 101 102 103 104 105 106 107 108 109 110 111 112 113 114 115 116 117 118 119 120 121 122 123 124 125 126 127 128 129 130 131 132 133 134 135 136 137 138 139 140 141 142 143 144 145 146 147 148 149 150 151 152 153 154 155 156 157 158 159 160 161 162 163 164 165 166 167 168 169 170 171 172 173 174 175 176 177 178 179 180 181 182 183 184 185 186 187 188 189 190 191 192 193 194 195 196 197 198 199 200 201 202 203 204 205 206 207 208 209 210 211 212 213 214 215 216 217 218 219 220 221 222 223 224 225 226 227 228 229 230 231 232 233 234 235 236 237 238 239 240 241 242 243 244 245 246 247 248 249 250 251 252 253 254 255 256 257 258 259 260 261 262 263 264 265 266 267 268 269 270 271 272 273 274 275 276 277
        </DataArray>
        <DataArray type="UInt8" Name="types" format="ascii">
 1 1 1 1 1 1 1 1 1 1 1 1 1 1 1 1 1 1 1 1 1 1 1 1 1 1 1 1 1 1 1 1 1 1 1 1 1 1 1 1 1 1 1 1 1 1 1 1 1 1 1 1 1 1 1 1 1 1 1 1 1 1 1 1 1 1 1 1 1 1 1 1 1 1 1 1 1 1 1 1 1 1 1 1 1 1 1 1 1 1 1 1 1 1 1 1 1 1 1 1 1 1 1 1 1 1 1 1 1 1 1 1 1 1 1 1 1 1 1 1 1 1 1 1 1 1 1 1 1 1 1 1 1 1 1 1 1 1 1 1 1 1 1 1 1 1 1 1 1 1 1 1 1 1 1 1 1 1 1 1 1 1 1 1 1 1 1 1 1 1 1 1 1 1 1 1 1 1 1 1 1 1 1 1 1 1 1 1 1 1 1 1 1 1 1 1 1 1 1 1 1 1 1 1 1 1 1 1 1 1 1 1 1 1 1 1 1 1 1 1 1 1 1 1 1 1 1 1 1 1 1 1 1 1 1 1 1 1 1 1 1 1 1 1 1 1 1 1 1 1 1 1 1 1 1 1 1 1 1 1 1 1 1 1 1 1 1 1 1 1 1 1 1 1 1 1 1
        </DataArray>
      </Cells>
      <PointData Scalars="overlap">
        <DataArray type="Float32" Name="overlap" format="ascii">
 0.0001579361 0.0001040416 0.0001277650 0.0000374977 0.0000738195 0.0000430952 0.0001234574 0.0000552560 0.0002492149 0.0003476755 0.0000351311 0.0000125023 0.0000339684 0.0000209682 0.0003487280 0.0000089678 0.0002261000 0.0000904124 0.0002200394 0.0003719387 0.0002186261 0.0001965267 0.0003898790 0.0003020359 0.0002412014 0.0001151974 0.0004483233 0.0003783581 0.0000156845 0.0000814831 0.0000258890 0.0001613832 0.0002451969 0.0001332479 0.0001656632 0.0000063616 0.0001670628 0.0000887213 0.0000068423 0.0001050459 0.0000255487 0.0002696707 0.0002608117 0.0005656144 0.0000676824 0.0001980716 0.0001523798 0.0001210830 0.0001749677 0.0002046323 0.0003783419 0.0001641674 0.0000483418 0.0000992853 0.0000808105 0.0000473637 0.0000539930 0.0000345874 0.0001065437 0.0003528584 0.0000990326 0.0000694497 0.0000723033 0.0001864694 0.0000401878 0.0000268642 0.0001464547 0.0000478482 0.0000299924 0.0000422074 0.0000695402 0.0002441742 0.0000121082 0.0000813730 0.0001051238 0.0000829746 0.0000605937 0.0000703940 0.0000760424 0.0000046573 0.0000013424 0.0000367076 0.0000478302 0.0000481531 0.0000176404 0.0000367569 0.0000011012 0.0000070426 0.0001123145 0.0000796830 0.0000699631 0.0000783653 0.0000289245 0.0000501707 0.0000387477 0.0000731210 0.0000157770 0.0000360362 0.0000867688 0.0001012031 0.0001129982 0.0000951199 0.0000241922 0.0001133758 0.0000094372 0.0000508861 0.0000018855 0.0000642008 0.0000175827 0.0000278947 0.0000041890 0.0000051410 0.0000920482 0.0000490819 0.0000199607 0.0000031736 0.0001527159 0.0000128166 0.0000148292 0.0000720009 0.0000237254 0.0000224750 0.0000102980 0.0001576520 0.0000560190 0.0000814863 0.0002113128 0.0000656456 0.0002493538 0.0001456022 0.0001403327 0.0001090257 0.0000799058 0.0000775911 0.0000037605 0.0000831351 0.0000079270 0.0000257969 0.0000695301 0.0001993191 0.0000402187 0.0001376788 0.0000542529 0.0005911908 0.0000599159 0.0000567707 0.0000203404 0.0001284157 0.0002995873 0.0001896331 0.0000612618 0.0000232811 0.0000970662 0.0000006697 0.0000797804 0.0000317128 0.0001270450 0.0000021005 0.0000530168 0.0000519602 0.0000391488 0.0000415153 0.0000190758 0.0000506809 0.0000646695 0.0000073560 0.0000179592 0.0000225719 0.0000265334 0.0000115521 0.0000560840 0.0001028577 0.0000620947 0.0000692509 0.0000334503 0.0000385865 0.0000954141 0.0000316410 0.0002198762 0.0000442547 0.0000574352 0.0001665866 0.0000054880 0.0000133855 0.0000586071 0.0000339162 0.0001485484 0.0001117506 0.0001439292 0.0003408039 0.0000055724 0.0000269301 0.0000438721 0.0000330683 0.0000314990 0.0000462069 0.0001357055 0.0000733408 0.0000185814 0.0000171162 0.0000125230 0.0000216687 0.0000147847 0.0000058452 0.0000318889 0.0000246784 0.0000018518 0.0001025523 0.0000645750 0.0000334905 0.0000151481 0.0000907259 0.0001038149 0.0001031682 0.0001186301 0.0000588402 0.0000655149 0.0001447985 0.0000188052 0.0000078663 0.0000530382 0.0000992287 0.0000746045 0.0000092121 0.0001330886 0.0000170141 0.0000019438 0.0000561398 0.0000191117 0.0000274641 0.0000114636 0.0000390097 0.0000898336 0.0000353768 0.0000010886 0.0000334722 0.0000043811 0.0000496861 0.0000336736 0.0000214845 0.0000406875 0.0000401303 0.0000144267 0.0000264011 0.0000057988 0.0000189843 0.0000123399 0.0000251836 0.0000090553 0.0000415439 0.0000132145 0.0000312175 0.0000425752 0.0000434434 0.0000373425 0.0000702552 0.0000339531 0.0000130200 0.0000115266 0.0000238373 0.0000360180 0.0000153708 0.0000485181 0.0000028120 0.0000139317 0.0000788647 0.0000300776 0.0000299758 0.0000412888 0.0000256780 0.0000251929 0.0000282783 0.0000318855 0.0000140035 0.0001171521 0.0000294196 0.0000905080
        </DataArray>
        <DataArray type="Float32" Name="contact normal" NumberOfComponents="3" format="ascii">
 0.3715299847 0.0451868089 -0.9273206688 0.3781784146 0.8881604777 0.2610594808 -0.6709394720 0.7099477247 -0.2140431103 -0.6939195203 0.7191656222 0.0357282407 -0.8146442022 0.0817402817 -0.5741718821 -0.7306185134 0.0451656238 -0.6812904331 0.1148573872 -0.5946017710 -0.7957741605 -0.7820614897 0.6037230034 0.1545909490 -0.7444785125 0.6547090453 0.1307968290 -0.2979694459 -0.9289676978 -0.2196206404 -0.3673424349 -0.8037916809 -0.4679513535 -0.2244708666 0.2406670276 0.9442945578 0.7111975852 -0.5598906600 0.4251122718 0.7160712238 -0.5524355783 0.4266813030 0.7510478189 -0.4942927948 0.4377234363 -0.8776460948 0.1640717049 -0.4503529814 -0.8558681407 0.0193944986 -0.5168303195 0.0939607471 -0.3017903340 0.9487328245 -0.9609888495 0.2723518129 0.0482174361 0.9866056702 -0.1578299660 0.0412183617 0.9902388668 -0.1324346711 -0.0434516336 -0.9507598752 -0.2561313471 0.1745061393 -0.9518903515 -0.2714313507 0.1422314333 -0.8807581442 0.0488583712 0.4710392245 -0.9078485843 0.3053081073 0.2873985171 0.9891292240 0.0639694530 0.1324057673 0.9828250294 -0.0632228701 0.1733719422 0.0768953648 -0.6932469267 0.7165862135 0.2101911604 -0.9767905420 -0.0412300039 0.2104430105 -0.9767369664 -0.0412145339 0.2102279216 -0.9767827261 -0.0412277460 0.2767494644 -0.9602289707 -0.0370142924 0.6050259818 0.7814096442 0.1527826210 -0.0623430329 0.7153207808 -0.6960097174 -0.0332827943 0.6860685456 -0.7267752103 -0.8933933858 -0.4438426747 -0.0696558571 -0.8707260148 -0.4895661855 -0.0464882480 -0.8654528139 -0.4992729654 -0.0414479541 -0.2946927733 0.3358774091 -0.8946186536 -0.7339557579 -0.0290306116 -0.6785765757 -0.3870177601 0.3784096430 -0.8408468323 -0.7291815654 0.5275159199 0.4359142106 -0.3235589456 0.4684693789 0.8220985645 -0.2583122103 0.4907302637 0.8321409798 -0.3019114007 0.4986976811 0.8124962332 0.9116678960 0.1832265968 0.3678174298 0.3421929767 -0.7997706051 0.4932250460 0.2313813648 -0.7071521558 -0.6681305954 0.2361463666 -0.6999829185 -0.6739872456 0.3196300699 -0.6306233875 -0.7072133776 0.3045947121 -0.6439816981 -0.7017903062 0.2941656334 -0.6530168264 -0.6978793624 -0.1164244777 0.9097343707 -0.3985332053 0.8497823983 -0.4347057135 0.2981624024 -0.9051242661 0.2665469303 -0.3312141254 -0.9031404382 0.2485039240 -0.3501187635 -0.7096673988 0.6967810990 -0.1042510581 -0.8983109728 0.3095563535 -0.3117888070 -0.9004904226 0.2784275103 -0.3340585582 0.5374490732 0.4395007488 0.7197135441 -0.9568611786 0.2905305532 0.0029466171 -0.7772559169 -0.1284752235 -0.6159280450 -0.6687461365 -0.0915516046 -0.7378325750 0.5764161241 -0.7719461316 0.2680366052 -0.9184761952 -0.0591252025 -0.3910315706 0.9017816409 -0.3805468066 0.2048755721 0.9052475877 -0.3743022199 0.2010588301 -0.0457586165 0.8968282019 -0.4400060515 -0.7090119776 0.6835799904 0.1732639962 0.3001869429 -0.6113267942 0.7322344912 -0.6336359456 -0.0987279135 -0.7673058631 0.2947060074 0.5055450976 0.8109084557 -0.4050289605 0.9008817266 -0.1560886152 -0.1423017753 -0.8891948683 0.4348363957 0.8797504356 -0.3047429368 0.3649259014 -0.5390885090 0.6738607185 -0.5052675643 0.7524415832 0.5652655197 -0.3380925260 0.0700265852 0.8633202140 0.4997744346 0.0017431617 0.5435282763 0.8393890482 -0.5172720181 0.6786975272 -0.5213437693 -0.4737454447 0.6884794408 -0.5491459854 -0.5173057346 0.6787040125 -0.5213018708 -0.4739761949 0.6884340912 -0.5490037055 -0.5173193355 0.6787006109 -0.5212928024 -0.5172374790 0.6787210809 -0.5213473742 -0.5173231190 0.6786996645 -0.5212902799 -0.5173232588 0.6786996296 -0.5212901867 0.8070893144 -0.5666632074 0.1658301781 0.8310321792 -0.5146580572 0.2109800971 0.8335309399 -0.5084298642 0.2161602307 -0.3116519057 -0.8972292990 -0.3128141217 0.0461992012 -0.4032141009 -0.9139387412 -0.4824377001 -0.1583260887 -0.8615025915 0.7329366250 -0.0201593599 0.6799981646 0.7332173836 -0.0204947893 0.6796853919 0.7333364817 -0.0206368422 0.6795525920 0.7331773636 -0.0204469653 0.6797300017 0.7337348528 -0.0211136723 0.6791077813 0.7335690955 -0.0209150805 0.6792929718 0.7336481757 -0.0210008025 0.6792049179 0.7336251919 -0.0207696108 0.6792368520 0.7332616568 -0.0202800676 0.6796440697 -0.7299741454 -0.1689375814 -0.6622671973 0.7342448441 -0.0195237523 0.6786039581 -0.6983933741 -0.0564150375 -0.7134872378 -0.7019887498 -0.0501528746 -0.7104199352 -0.6863972872 -0.0747325233 -0.7233766751 -0.4462958680 -0.1827016848 -0.8760365818 0.8173325741 0.5618319033 -0.1277199114 0.8027300465 0.5297557104 -0.2738308963 -0.4974081925 0.5155637071 -0.6976956026 -0.7334415712 0.0259085356 -0.6792585733 -0.7342291915 0.0293828293 -0.6782655407 -0.7518494573 0.0531869801 -0.6571860761 -0.7345523526 0.0302725614 -0.6778763997 0.7014233795 -0.7126048113 -0.0141288970 -0.8095219688 0.5000131568 -0.3076703188 0.1285352327 0.4866307125 0.8641002509 -0.1317881161 -0.4844153802 -0.8648546883 0.1729643983 0.5445052443 0.8207297703 -0.9192732970 0.2201913690 -0.3262703887 -0.2435010994 -0.9698981660 -0.0021822433 -0.0495219874 0.3179941146 -0.9467984558 0.0036311346 0.3850241558 -0.9228993522 0.6110305886 0.7768158903 -0.1523111694 -0.6340229940 0.1367969257 0.7611185480 -0.6364305041 0.1350714023 0.7594155185 -0.6312072943 0.1396980472 0.7629297525 0.7155570464 -0.6775254658 0.1701098366 0.0214480353 0.9709193024 -0.2384443121 -0.8441615777 -0.4815232911 -0.2356407243 -0.5827464605 0.6535050995 -0.4830503573 -0.5576171746 0.6245705917 -0.5467857557 0.8628739660 -0.1071652572 0.4939272482 0.8628680267 -0.1071377997 0.4939435801 0.9064145062 -0.1310411176 0.4015482143 -0.5617449795 -0.4452439218 -0.6972807384 -0.5619346643 -0.4451839917 -0.6971661542 -0.8824416386 0.3906901909 -0.2620265811 -0.8824433941 0.3906972855 -0.2620100901 -0.5620772337 -0.4450015179 -0.6971677219 -0.8824449487 0.3907035686 -0.2619954847 -0.5624022714 -0.4447715065 -0.6970523596 0.3656479796 -0.9288272565 0.0598454892 -0.5631687206 -0.4450621558 -0.6962475635 0.2774017860 -0.9125032082 0.3006428849 0.7432293099 0.0175925066 0.6688054251 -0.5577205557 0.2900860469 0.7776875125 0.7959824866 0.2054429490 0.5693900910 -0.8523697698 0.3228395993 0.4113883428 -0.2508401299 0.2037416719 0.9463448422 -0.9115410594 0.3778038664 0.1623488084 -0.2263613753 -0.3333732276 -0.9152173616 -0.7089322589 0.0215644158 -0.7049468266 0.4700162454 0.4369178056 -0.7669338695 -0.8258405154 0.4196514688 0.3766697331 -0.3336502673 0.2830364541 -0.8992040173 0.1940895154 0.9602403047 0.2006684260 -0.2971598908 0.2422966829 -0.9235736661 0.2062120443 0.9588304811 0.1952452336 0.2372130476 -0.4418710724 0.8651473432 0.2411267801 -0.4457541398 0.8620679340 0.2493261878 -0.4733268805 0.8448657386 0.2596985079 -0.4422402907 0.8584755152 0.2681684693 -0.4494348924 0.8521114654 0.2649498997 -0.4461894760 0.8548195729 0.2718158077 -0.4527188931 0.8492124413 -0.3935355404 -0.2808562456 -0.8753568117 0.2826832267 -0.4528624623 -0.8455801462 -0.6230114209 0.4456127918 -0.6428732451 0.0011640689 0.6089903921 0.7931767440 0.5872264172 0.7792984167 0.2187672568 0.5275828856 0.8268697727 0.1947888030 0.0988525951 0.8646147114 0.4926150274 -0.5729915128 0.6868753325 -0.4470827707 -0.5139102959 0.7220239251 -0.4632252793 -0.5363780213 0.7101145934 -0.4561095072 -0.8894226476 0.4553365354 -0.0399498877 0.6301905113 -0.6529270837 0.4201739436 0.6334811760 -0.6443845274 0.4283341925 -0.7761378378 0.5909250896 0.2200399853 -0.7882295295 0.5817045886 0.2007834169 0.0035762728 -0.8260717450 0.5635536198 -0.1372403845 -0.8401709641 0.5246692558 -0.4650263878 -0.8394931866 0.2810723185 -0.0059245475 -0.5004382942 -0.8657519353 -0.7613370152 0.6023346711 0.2399143457 -0.8765962378 0.4115157617 -0.2494670593 -0.9376454425 0.2952021670 -0.1835121378 -0.6623608440 0.5992436756 0.4496500080 0.5426620920 0.5295556291 0.6519882588 -0.9113216976 0.3905720863 -0.1301776052 -0.5124733032 0.6131670511 -0.6011632732 -0.5405094882 0.6417220470 -0.5440977003 -0.1935239610 0.1373914003 0.9714278561 -0.1920972088 0.1316622700 0.9725038350 0.5850686519 0.8044459424 -0.1027686641 -0.4139102347 -0.0118634274 0.9102403950 -0.4349401889 -0.1486282416 -0.8881084832 -0.5671136901 0.5503743127 -0.6127562145 -0.7130748465 0.0828523908 -0.6961750819 0.9211541876 -0.3790954190 0.0881000907 0.5858681409 -0.6951051598 0.4166381383 0.5674380163 -0.7076268093 0.4210444114 -0.8924610532 -0.1252799446 0.4333799764 -0.3918453900 0.0832796663 -0.9162541610 -0.3674748395 -0.8597798012 -0.3545996839 -0.8475112152 0.4965405269 -0.1875426491 -0.8541246228 0.4864323454 -0.1839964731 0.9659251972 -0.2308348732 0.1170631227 0.5348644815 -0.7460617526 0.3966255763 0.8994550677 0.0783704095 0.4299286685 -0.2104587989 -0.0670440186 -0.9753010784 -0.2001718662 -0.0655365901 -0.9775664578 -0.8272752938 0.4891701726 -0.2762754614 -0.1174822928 -0.5681415100 0.8145017713 -0.4132521932 0.9012134132 -0.1305258925 0.6107471712 -0.4513875614 0.6505668008 -0.5332213277 -0.5061640600 -0.6778443479 -0.5539202032 -0.5083889914 -0.6593277196 -0.6535950162 0.5140966944 -0.5554440958 -0.6403809445 0.4372057222 -0.6314771590 -0.9890765291 0.0069243310 -0.1472401890 -0.9928084772 0.0235966023 -0.1173649348 0.8839754612 -0.4325044424 0.1775592616 -0.9727357773 0.0776644269 -0.2185253861 0.8507020991 0.1190356925 0.5119926196 -0.9575728136 0.0758294517 -0.2780363302 0.0181368699 -0.5037060973 -0.8636846771 0.0212485992 -0.5004533463 -0.8655027124 0.0169252335 -0.5015748215 -0.8649486892 -0.4591827453 0.8528751538 0.2485058921 -0.7227040232 0.4841500150 -0.4932521240 -0.7269981778 0.4701012874 -0.5004782004 0.3403569039 -0.2167459455 0.9149745204 -0.3076363873 -0.5709216022 -0.7611887922 0.7977086572 0.3933311227 0.4571121593 -0.4026475624 0.8660609087 -0.2963333307 -0.3982139063 0.8837834955 -0.2456672910 -0.3181798229 -0.9359058877 0.1511349388 0.9504742814 0.0108762053 -0.3106128596 0.6597499149 0.3732841549 -0.6522185136 0.6218402088 -0.7176625478 0.3134887910 0.6217690776 -0.7177180414 0.3135028345 0.6216047846 -0.7184513284 0.3121460884 0.6573065818 -0.6883310248 0.3068362068 0.6574382013 -0.6882221965 0.3067983370 0.3876916314 0.8618015139 0.3270983792 0.7037185173 0.4145366047 -0.5770092302 -0.8810094297 0.3506599242 -0.3175846382 -0.8758525640 0.3586726125 -0.3228563817 -0.5465384884 0.6371125516 -0.5434917453 0.3835515906 0.8408856000 -0.3818371184 0.3436150881 0.8154578282 -0.4657866483 0.5950151409 -0.7351752645 0.3247680904 0.5951954304 -0.7349728126 0.3248959284 0.5951797386 -0.7349630563 0.3249467412 0.5951724185 -0.7349637175 0.3249586530 0.5951822923 -0.7349620169 0.3249444147 0.5952107505 -0.7349570980 0.3249034112 -0.5561209561 0.8122717764 -0.1759091909 -0.4785262331 0.8780598196 0.0048577290 -0.4181926831 0.9082252941 0.0155465391 0.7511750624 -0.1617756196 -0.6399724014 0.4585453805 -0.8692149327 0.1849365698 0.3861747298 -0.0235481884 -0.9221250246 0.3221567449 -0.2069005506 -0.9238004080 -0.3239417842 -0.9272083206 0.1880065176 -0.9539337228 -0.2073576554 0.2168254029 0.5572949949 -0.1122681212 0.8226895877 0.5680604010 -0.1490877728 0.8093702595 0.3288495327 -0.2443323739 0.9122278640 -0.8322034309 0.2112666809 0.5126439692 -0.6935237692 0.5624813919 -0.4501549348 -0.3286760180 0.3248985362 -0.8867993101 0.6281233054 -0.3560117896 0.6918935748 0.6216272378 -0.4037771432 0.6712254433
        </DataArray>
        <DataArray type="Float32" Name="contact force" NumberOfComponents="3" format="ascii">