<?xml version="1.0"?>
<VTKFile type="UnstructuredGrid" version="0.1" byte_order="LittleEndian">
  <UnstructuredGrid>
    <FieldData>
      <DataArray type="Float32" Name="TIME"  NumberOfTuples="1" format="ascii"> 0.4000000000 </DataArray>
      <DataArray type="Int32"   Name="STEP"  NumberOfTuples="1" format="ascii"> 40000 </DataArray>
    </FieldData>
    <Piece NumberOfPoints="238" NumberOfCells="238">
      <Points>
        <DataArray type="Float32" NumberOfComponents="3" format="ascii">
 0.4908230894 0.2361163692 -0.2837179691 0.5676835605 0.1461244801 -0.3666868883 0.6065219429 0.1578745520 -0.2407352236 0.6809843123 0.1217692426 -0.3744812724 0.6729235807 0.3678965405 -0.2207487286 0.6851744573 0.3611880600 -0.2254565246 0.7017234318 0.4494000271 -0.2365209953 0.8016397876 0.1806173972 -0.3983184894 0.8100903002 0.1864257684 -0.3972487130 0.7839138353 0.4545768800 -0.3141774056 0.8752049632 0.2324048381 -0.4703702580 0.7943184701 0.3867446077 -0.4880740359 0.8288797295 0.3962003635 -0.5001744553 0.9236389378 0.3726383926 -0.3452118544 0.9611945338 0.3567157809 -0.4341510075 1.0853106835 0.2501096239 0.0641520867 1.0652120779 0.3018998013 -0.0454963818 1.1981681225 0.4744847047 -0.1170362561 1.1721183246 0.2437219692 -0.1627733724 1.1739643000 0.2675977111 -0.1494356088 1.1711260337 0.4329698132 -0.2276025563 0.2775897233 0.9431657821 -0.0099717104 0.4264059305 0.8472077249 -0.1268331113 0.3264983343 0.7582667866 -0.0895769531 0.2885305939 0.8358953970 0.0310404663 0.2954945098 0.8289567593 0.0300453382 0.4266273062 0.8386202761 -0.0040196881 0.7673038578 0.7525973642 -0.1649280976 0.8722679274 0.7411498255 -0.2110752964 0.7917839190 0.7376172610 -0.2806920635 0.9072896276 0.7912253482 -0.2028322446 0.7969656719 0.7407997175 -0.2832426582 0.7927975342 0.7432447214 -0.2874660894 0.8076485311 0.8388051243 -0.1759988749 0.8104711579 0.8432952927 -0.1803685605 0.9041584376 0.8429713957 -0.2634619097 0.7312663277 0.8571615372 -0.2251505624 0.7282152922 0.8587594096 -0.2317514754 0.4363117348 0.4858207813 0.0830443761 0.4925880003 0.4734803163 0.1861469968 0.3862575201 0.6767068535 0.0502608033 0.3550897339 0.7050715632 0.0976788545 0.5156599270 0.4500548370 0.0540824643 0.5886889642 0.5339028202 0.1509904007 0.5982810456 0.5322671394 0.1433004889 0.5828319842 0.4472108259 0.1002635096 0.6126423778 0.5451062321 0.1381669382 0.5273105195 0.4628776615 -0.0257376347 0.4679564461 0.7661972510 0.2100558115 0.5215317842 0.7912641747 0.0018389313 0.7037432410 0.5120521551 0.0353254140 0.7129487410 0.5221938973 0.0362685210 0.5716626119 0.8773230686 0.1227199604 0.7118750327 0.8128393324 0.1182819007 0.7279920094 0.8287865602 0.1096963632 0.6934770435 0.9036403154 -0.0605673157 0.8733028076 0.7402509957 0.0240510881 0.7385868338 0.0688334021 -0.3095573332 0.6146509167 0.1653170038 -0.0946702056 0.8450217251 0.2254776124 -0.2557378209 0.8983063579 0.1262105005 -0.1210899432 0.9373929579 0.3504733069 -0.2178958952 0.9483438466 0.3568007456 -0.2136936751 0.7476291620 0.3060295958 -0.1493605790 0.7772504870 0.2065257348 -0.0227013628 0.7636054741 0.2925917055 0.0659602659 0.7546010935 0.3011674186 0.0746950703 0.6712110496 0.3912477694 0.0675064127 0.9184676009 0.5451785356 0.0839815556 0.2568806973 0.5067611654 -0.1599509785 0.2575536170 0.5026128644 -0.1507213980 0.3219921299 0.4803406179 -0.1685714546 0.3138709259 0.4762546403 -0.1596924092 0.2863694310 0.5081369310 -0.0456463015 0.2918505519 0.5167400841 -0.0389953821 0.2880277852 0.5258495413 -0.0316265745 0.2897593376 0.5400928733 -0.0203849438 0.2799201561 0.6504265998 -0.0865306465 0.2853267674 0.6548341022 -0.0870832781 0.3122340897 0.6913881019 0.0507192327 0.3110677106 0.7002867461 0.0414344136 0.4224072115 0.3215620951 -0.0546970220 0.4165610685 0.3136714838 -0.0526360094 0.4287050038 0.3213609141 -0.0568493923 0.4092603695 0.3086530881 -0.0500984818 0.4230800085 0.3120863173 -0.0548433079 0.4347676987 0.3230179294 -0.0589346917 0.4408697095 0.3266439134 -0.0610490764 0.4473326185 0.3326195029 -0.0633014789 0.4545992001 0.3417222271 -0.0658361377 0.2790399458 0.3485982320 0.0570991696 0.4617872061 0.3390390665 -0.0682816006 0.4982697377 0.3297022253 0.0082210350 0.5066943918 0.3364485979 0.0049133971 0.5148233825 0.3322274331 0.0030572670 0.2975589727 0.2714521092 0.0684208812 0.2629581229 0.1763990540 0.0258579179 0.3233097231 0.0850860611 0.0560670037 0.3417308168 0.0751875872 0.0566719972 0.4619983846 0.1347135220 0.0293273644 0.4705909767 0.1391895776 0.0263792398 0.4870315891 0.1564701785 0.0209265172 0.4947800520 0.1655059475 0.0183735043 0.5029990361 0.1692661778 0.0155306301 1.0348539776 0.0913321034 -0.0209477264 0.5579461629 0.2551752251 0.0825696971 0.9548818084 0.6890932655 0.0287874954 1.0245215508 0.6653319580 -0.1015313821 1.0281446975 0.6711643179 -0.0988821732 0.6983234269 0.5189515411 -0.2115861744 0.7705347441 0.5140479799 -0.1958667095 0.7762717758 0.5326524899 -0.1900369331 0.7197821558 0.5716136935 -0.3575218123 0.8945093880 0.6447415515 -0.2547449844 0.9045110553 0.6461103272 -0.2589451664 0.9433451373 0.4560049108 -0.3237432447 0.9525962818 0.4653001344 -0.3246737668 0.9148959359 0.6476056232 -0.2633462541 0.9615949064 0.4743454601 -0.3257274653 0.8511946394 0.7407167235 -0.3776285885 0.9261597171 0.6493834841 -0.2681995299 0.8604612932 0.7379012441 -0.3850819681 0.8695430234 0.7486552212 -0.3843997856 0.9390369601 0.6516771770 -0.2738748538 0.9230700146 0.7567158250 -0.3575014434 1.0147568132 0.5410284772 -0.4134988899 0.9540822841 0.6312786699 -0.4764354367 1.0726674483 0.6474416755 -0.3397830271 0.6333946782 0.1542162200 0.0245343360 0.6016842011 0.0636407515 0.0877561394 0.4323333901 0.1835351435 0.1117907934 0.5003734920 0.1184435036 0.1427439714 0.4927063065 0.1227033497 0.1453124296 0.4128580242 0.0844531140 0.1494567913 0.4425659276 0.1985058079 -0.2353100013 0.4465402472 0.2012434223 -0.2333611117 0.4508764644 0.2269163261 -0.1651258935 0.2984660753 0.9662380301 0.0566505887 0.5972338441 0.4869964401 -0.1998523480 0.9069222511 0.5651933738 -0.5130795771 0.8990201434 0.5707215345 -0.5106977432 0.9032134668 0.5688825940 -0.5158806337 0.8770065776 0.0598537700 -0.2995120253 0.8563122924 0.0790666500 -0.2602720527 0.8492370548 0.0817171344 -0.2577332975 0.9562669229 0.0984407784 -0.2968635569 0.9662443034 0.1106006442 -0.2943556442 0.8486029277 0.1834742276 -0.3576264354 0.8539266720 0.1866483396 -0.3569761313 1.1355701823 0.5617667036 -0.2827048828 1.0760260780 0.4384605884 -0.2614360768 1.0758188664 0.4335579256 -0.2657693761 1.0706412019 0.4318980663 -0.2620665836 1.0291064618 0.3514011720 -0.3340129755 1.0101213597 0.6242750661 -0.1983913887 0.8877393719 0.5940803068 -0.1543421957 0.3937094780 0.9298465145 0.0718058230 0.3995053808 0.9283205579 0.0770659641 0.3198852421 0.3178576292 -0.1789949083 0.3847446929 0.3504186012 -0.1546241218 0.4218179024 0.3023803064 -0.2533415485 0.4532182153 0.4229968027 0.0710402865 0.3624332495 0.1882678941 0.1412692304 0.4068529469 0.2215021772 0.1280919131 0.3248385130 0.2933279433 0.0876337646 0.5787025485 0.9067913145 0.1991249131 0.7771164599 0.2232895297 0.0692579275 0.7940881708 0.1519044061 0.0439491012 0.6909146264 0.1682767259 0.0045089603 1.0461508768 0.2807149917 -0.4134817079 1.0818483268 0.3515150433 -0.2812823599 0.8161997215 0.7777498418 0.1145896917 0.8035880583 0.8126874838 0.1827323252 1.0431587373 0.1041307809 -0.3893409229 0.6086412946 0.9392087682 -0.1111205389 0.6200961408 0.9385057142 -0.1207089218 0.5936622064 0.9175242111 -0.1425362498 0.2209671933 0.2621611645 -0.1160582976 0.2932612088 0.1764514570 -0.1699886184 0.9935874552 0.8795267233 -0.2530659917 1.0677331273 0.8603258455 -0.1810582778 1.0612294831 0.8396578134 -0.1796847550 0.5013595561 0.3103163443 0.2867362367 1.0653022308 0.6320095322 -0.1353333112 1.0693822254 0.6360850638 -0.1376181824 1.0750959106 0.3361753675 -0.2413339133 0.3888887919 0.2225749569 0.1490172719 0.8489497501 0.0456700871 -0.1875405215 0.8512928323 0.0396950963 -0.1934784040 1.0267397308 0.1550284991 -0.2655265559 1.0187628366 0.1601156632 -0.2612412806 0.9753077971 -0.0041355667 -0.2732411478 0.9718058652 -0.0003877344 -0.2644635474 0.6096465799 0.4698217679 0.1567741766 0.4489544272 0.1717975987 -0.2919652851 0.5196129391 0.3394499873 -0.2459220139 0.9540016860 0.8643593552 -0.3660318523 0.9518897835 0.8673944389 -0.3620298095 0.9553495153 0.8699162010 -0.3605757315 0.9498218689 0.8701761605 -0.3582921799 0.9532057015 0.8727036383 -0.3568412238 0.9511110240 0.8754371166 -0.3531589023 0.9545370259 0.8781730349 -0.3515086770 0.9490579346 0.8782540950 -0.3493825583 0.9524131617 0.8811724299 -0.3475506807 0.9503353567 0.8845239980 -0.3432135522 0.2391869226 0.2454882066 -0.0905742915 0.4614652192 0.6459890932 0.3044789101 0.8958745747 0.1069858158 -0.5381687263 0.9180759115 0.1408313520 -0.5062041152 0.9018833692 0.1190009862 -0.5263203135 0.9098173576 0.1319060216 -0.5139837126 0.9058568301 0.1214122673 -0.5246950610 0.9094231862 0.1277399733 -0.5185581235 0.8164930901 0.0367350706 -0.1250897401 0.8043616208 0.0367718644 -0.1211556250 0.7248260553 0.0638535621 -0.1162074392 0.3447663723 0.6713261745 -0.1428126360 0.3351703695 0.6599650760 -0.1465309049 0.4938588113 0.6810090186 -0.1399419942 0.4830330022 0.5498841402 -0.2264200063 0.5974154740 0.5024374156 -0.3162156702 0.4833942710 0.4803650417 0.2146492735 0.4779368905 0.4761737564 0.2212012383 0.4606053732 0.4815411809 0.2229018223 0.3744267335 0.3649835951 0.1536732509 0.4028528065 0.3369193445 0.2143399875 0.3793358736 0.3551043656 0.1528160348 0.6473702816 0.0600103643 0.0857415091 0.6167890950 0.0431411349 0.1412763741 0.6128883563 0.0431129010 0.1499526908 0.6117502971 0.0443331080 0.1542805329 0.3104782180 0.4259706334 0.0793051467 0.3206492946 0.4792215294 0.0304374650 0.3135674656 0.4774922510 0.0313747071 0.7767270010 -0.0184535663 0.0157436544 0.6812168825 0.9208347454 -0.1536538918 0.6736704197 0.9157617218 -0.1543808886
        </DataArray>
      </Points>
      <Cells>
        <DataArray type="Int32" Name="connectivity" format="ascii">
 0 1 2 3 4 5 6 7 8 9 10 11 12 13 14 15 16 17 18 19 20 21 22 23 24 25 26 27 28 29 30 31 32 33 34 35 36 37 38 39 40 41 42 43 44 45 46 47 48 49 50 51 52 53 54 55 56 57 58 59 60 61 62 63 64 65 66 67 68 69 70 71 72 73 74 75 76 77 78 79 80 81 82 83 84 85 86 87 88 89 90 91 92 93 94 95 96 97 98 99 100 101 102 103 104 105 106 107 108 109 110 111 112 113 114 115 116 117 118 119 120 121 122 123 124 125 126 127 128 129 130 131 132 133 134 135 136 137 138 139 140 141 142 143 144 145 146 147 148 149 150 151 152 153 154 155 156 157 158 159 160 161 162 163 164 165 166 167 168 169 170 171 172 173 174 175 176 177 178 179 180 181 182 183 184 185 186 187 188 189 190 191 192 193 194 195 196 197 198 199 200 201 202 203 204 205 206 207 208 209 210 211 212 213 214 215 216 217 218 219 220 221 222 223 224 225 226 227 228 229 230 231 232 233 234 235 236 237
        </DataArray>
        <DataArray type="Int32" Name="offsets" format="ascii">
 1 2 3 4 5 6 7 8 9 10 11 12 13 14 15 16 17 18 19 20 21 22 23 24 25 26 27 28 29 30 31 32 33 34 35 36 37 38 39 40 41 42 43 44 45 46 47 48 49 50 51 52 53 54 55 56 57 58 59 60 61 62 63 64 65 66 67 68 69 70 71 72 73 74 75 76 77 78 79 80 81 82 83 84 85 86 87 88 89 90 91 92 93 94 95 96 97 98 99 100 101 102 103 104 105 106 107 108 109 110 111 112 113 114 115 116 117 118 119 120 121 122 123 124 125 126 127 128 129 130 131 132 133 134 135 136 137 138 139 140 141 142 143 144 145 146 147 148 149 150 151 152 153 154 155 156 157 158 159 160 161 162 163 164 165 166 167 168 169 170 171 172 173 174 175 176 177 178 179 180 181 182 183 184 185 186 187 188 189 190 191 192 193 194 195 196 197 198 199 200 201 202 203 204 205 206 207 208 209 210 211 212 213 214 215 216 217 218 219 220 221 222 223 224 225 226 227 228 229 230 231 232 233 234 235 236 237 238
        </DataArray>
        <DataArray type="UInt8" Name="types" format="ascii">
 1 1 1 1 1 1 1 1 1 1 1 1 1 1 1 1 1 1 1 1 1 1 1 1 1 1 1 1 1 1 1 1 1 1 1 1 1 1 1 1 1 1 1 1 1 1 1 1 1 1 1 1 1 1 1 1 1 1 1 1 1 1 1 1 1 1 1 1 1 1 1 1 1 1 1 1 1 1 1 1 1 1 1 1 1 1 1 1 1 1 1 1 1 1 1 1 1 1 1 1 1 1 1 1 1 1 1 1 1 1 1 1 1 1 1 1 1 1 1 1 1 1 1 1 1 1 1 1 1 1 1 1 1 1 1 1 1 1 1 1 1 1 1 1 1 1 1 1 1 1 1 1 1 1 1 1 1 1 1 1 1 1 1 1 1 1 1 1 1 1 1 1 1 1 1 1 1 1 1 1 1 1 1 1 1 1 1 1 1 1 1 1 1 1 1 1 1 1 1 1 1 1 1 1 1 1 1 1 1 1 1 1 1 1 1 1 1 1 1 1 1 1 1 1 1 1 1 1 1 1 1 1 1 1 1 1 1 1
        </DataArray>
      </Cells>
      <PointData Scalars="overlap">
        <DataArray type="Float32" Name="overlap" format="ascii">
 0.0001996420 0.0001796815 0.0001916014 0.0000559789 0.0000781422 0.0000265818 0.0000278284 0.0000347985 0.0002334228 0.0002759054 0.0000731700 0.0000106139 0.0002522937 0.0001994065 0.0000439801 0.0002761597 0.0001993919 0.0001047212 0.0001361918 0.0000590011 0.0000397932 0.0000678260 0.0000510692 0.0000616349 0.0000657506 0.0000793231 0.0000463292 0.0001730567 0.0000603293 0.0000287877 0.0001253984 0.0000784499 0.0001313680 0.0000385274 0.0000424311 0.0000168505 0.0000612554 0.0001780410 0.0000616354 0.0001035362 0.0001647867 0.0000133790 0.0000158438 0.0000667223 0.0000088615 0.0000310022 0.0000509795 0.0002337257 0.0001888387 0.0000244873 0.0001239561 0.0000203801 0.0001478787 0.0001967503 0.0000303386 0.0002418537 0.0000179432 0.0000428888 0.0000889601 0.0000937385 0.0000023178 0.0000710211 0.0001160363 0.0000358005 0.0000221944 0.0000272801 0.0000257493 0.0000103480 0.0000306518 0.0000062820 0.0001559314 0.0000842817 0.0000794930 0.0000236374 0.0000200513 0.0000331539 0.0000195119 0.0000399352 0.0000000990 0.0000716964 0.0000263548 0.0000441304 0.0000330028 0.0000629412 0.0000125166 0.0000253805 0.0000733800 0.0000854511 0.0000957340 0.0000772553 0.0000530141 0.0000895127 0.0000274002 0.0000481782 0.0000025608 0.0000313390 0.0000494844 0.0000603935 0.0000420716 0.0000031944 0.0000389600 0.0001139270 0.0000562480 0.0000302598 0.0000197632 0.0000026486 0.0000205026 0.0000234706 0.0000013241 0.0000793801 0.0001238659 0.0000468699 0.0002356868 0.0000116649 0.0000260001 0.0000795238 0.0001983363 0.0000365225 0.0001260719 0.0000756868 0.0000459138 0.0001958201 0.0000564511 0.0000455827 0.0000761754 0.0000464233 0.0002272051 0.0000258869 0.0000295876 0.0001085243 0.0000662696 0.0000289707 0.0000088479 0.0000250999 0.0000603096 0.0000517156 0.0000287591 0.0000164176 0.0000075789 0.0000149860 0.0001035290 0.0000195167 0.0000020823 0.0000182935 0.0000630808 0.0000565582 0.0000259135 0.0002087849 0.0000307293 0.0000090742 0.0000715795 0.0000641248 0.0000811874 0.0000376425 0.0000718111 0.0000127476 0.0000727888 0.0000824984 0.0000946388 0.0000135829 0.0000727596 0.0000125085 0.0000125818 0.0000486464 0.0000068343 0.0000432931 0.0000035214 0.0000226674 0.0000106968 0.0000454637 0.0001295479 0.0000073835 0.0000189571 0.0000316653 0.0000245068 0.0000848509 0.0000205034 0.0000303144 0.0001269939 0.0000503644 0.0000022594 0.0000286920 0.0000095596 0.0000075653 0.0000175659 0.0000245834 0.0000031552 0.0000407935 0.0000018484 0.0000131135 0.0000067878 0.0000228816 0.0000475419 0.0000103127 0.0000237734 0.0000258720 0.0000050011 0.0000225222 0.0000153485 0.0000070324 0.0000518218 0.0000552780 0.0000291247 0.0000262697 0.0000477691 0.0000328502 0.0000278549 0.0000309621 0.0000169807 0.0000366385 0.0000057351 0.0000001724 0.0000446954 0.0000373529 0.0000352336 0.0000358749 0.0000355335 0.0000119459 0.0000009105 0.0000266296 0.0000250905 0.0000086114 0.0000003617 0.0000351260 0.0000191795 0.0000308076 0.0000848548 0.0000299248 0.0000164910 0.0000575322 0.0000242145 0.0000161877 0.0000330109 0.0000137085 0.0000191786 0.0000163240 0.0000198566 0.0001309820
        </DataArray>
        <DataArray type="Float32" Name="contact normal" NumberOfComponents="3" format="ascii">
 0.7466250317 -0.2233762582 -0.6266211848 0.4996759731 0.7052987987 0.5028692936 -0.3160901366 0.7320599410 -0.6034693599 -0.4280410553 0.8141207394 -0.3924134001 -0.4201263281 0.0862613847 -0.9033564313 -0.3088916915 0.0137747391 -0.9509974655 0.3082490961 -0.7665307180 -0.5633943140 -0.5909171559 0.7429911295 -0.3142946011 -0.5351887335 0.7806745409 -0.3226767435 -0.3896702133 -0.8926827005 -0.2264392217 -0.5582849415 0.4765922842 0.6791006691 0.2813925401 -0.5621984768 0.7776574510 0.3264072334 -0.5029346000 0.8003218765 -0.4977363032 0.0446655960 -0.8661775551 -0.4263508808 -0.0930133622 0.8997629915 -0.6279233576 0.6364122882 -0.4479862234 0.8018875954 -0.3076158438 0.5121999384 -0.9473053232 -0.0690885291 -0.3127929024 -0.5317557595 -0.2336580185 -0.8140268685 -0.9427420143 0.3180107816 -0.1005317724 0.8034575862 -0.0769425585 0.5903691641 0.0306400732 -0.9962944349 0.0803653216 -0.7151663783 -0.5935734937 0.3690630826 0.6696698124 0.6868737958 0.2823946370 0.4416748896 0.5401178925 -0.7163769636 0.4716896006 0.5008211414 -0.7257321166 -0.8489683424 -0.3369518060 -0.4070825887 -0.3263439658 -0.0641870733 -0.9430692634 -0.5918963933 0.7924593141 0.1471967905 -0.0876186450 0.6083052727 0.7888521207 -0.6186184900 0.0834959433 -0.7812423384 0.1156155122 0.6556968984 0.7461197161 -0.4911942035 0.7068073100 0.5090694265 -0.0005597187 -0.7131448799 -0.7010164527 0.0165513702 -0.6685815250 -0.7434546365 -0.1381467334 -0.7152267623 0.6851030277 0.4329134089 -0.8151604950 -0.3848367807 0.4140558453 -0.8244069788 -0.3858897386 0.6135013746 0.7789264314 -0.1299602935 0.3254978592 0.7942327024 -0.5130746125 0.4873147936 -0.4924608657 0.7211148229 0.9770215257 -0.1435307500 0.1575685953 -0.3388054269 0.8924275722 -0.2979662917 -0.5605805253 0.3301195054 -0.7594541374 -0.5547857668 0.3082470464 -0.7727849063 -0.3894521448 0.7633713975 -0.5153553497 -0.5524336486 0.3400598317 -0.7610363820 0.2489567729 0.4933293671 0.8334546543 -0.0193548260 -0.4097904298 -0.9119743386 0.3281545075 -0.9352573092 0.1326965893 -0.7520431095 0.4355002260 -0.4947430794 -0.6855494569 0.7184879717 -0.1174605322 0.3137671754 -0.6154831181 -0.7230011695 -0.4235340409 -0.1278191098 -0.8968172564 -0.2672301297 -0.1366610511 -0.9538929787 0.1822112757 -0.7801955183 0.5984095622 -0.6316846975 0.0103874473 -0.7751558191 -0.2169069570 -0.4588129961 0.8616507452 -0.2305206721 -0.1507100543 -0.9613254908 0.0162747684 0.6163992550 0.7872655780 -0.0646086020 0.8825761376 -0.4657092331 -0.5419784294 -0.7347628423 0.4079006590 0.5189373926 -0.4668286967 0.7160830612 0.5146429096 -0.3571900894 0.7794600154 -0.0656756969 0.6260351595 -0.7770242480 -0.0292335876 0.6564501221 -0.7538027822 -0.0691520670 0.7028894220 -0.7079296943 0.7482378902 0.4107981452 -0.5209462002 -0.6099163006 -0.7427727501 -0.2762077986 -0.6150048390 -0.7321080168 -0.2928940076 -0.7968766299 -0.5880680704 -0.1384325873 0.0511153046 0.9284468262 0.3679316738 -0.2403730588 0.7067623233 0.6653629167 -0.0394235607 0.6223940257 -0.7817105984 0.0126363303 0.6184977129 -0.7856849892 -0.0394396013 0.6223949645 -0.7817090418 -0.0394437730 0.6223952086 -0.7817086370 0.4917362685 -0.5853274998 0.6446604999 0.4931238496 -0.5786064552 0.6496487043 -0.3509591386 -0.8801215159 -0.3197089306 0.3487998276 -0.5970505265 -0.7224052527 0.3203317914 0.0103009219 0.9472494046 0.3206287894 0.0098639611 0.9471535682 0.3207560021 0.0096771699 0.9471124218 0.3205858254 0.0099271755 0.9471674508 0.3211778490 0.0090557869 0.9469755974 0.3210030231 0.0093135116 0.9470323741 0.3210895191 0.0091980143 0.9470041802 0.3211156806 0.0094303556 0.9469930243 0.3207437243 0.0100498406 0.9471126987 -0.3743610608 -0.1885962910 -0.9079015559 0.3222688374 0.0103841804 0.9465912345 -0.2934436839 -0.0956980031 -0.9511743776 -0.2963085586 -0.0884805762 -0.9509849766 -0.2832751376 -0.1175132637 -0.9518118665 -0.0386811319 -0.2966503568 -0.9542024606 0.9436948051 0.3176233845 0.0924959482 0.0147768969 0.4225643384 -0.9062124603 0.6150503072 -0.6015926639 -0.5097051955 -0.3237849293 -0.0072665170 -0.9461028048 -0.3182722252 -0.0051890155 -0.9479851606 -0.3185182917 -0.0014997295 -0.9479155282 -0.3371480549 0.0289409033 -0.9410067020 -0.3187479842 -0.0005029468 -0.9478393691 -0.3904225260 0.5180672631 -0.7610365051 -0.1425878261 0.7057181551 0.6939961077 0.5835033737 0.1022459347 -0.8056485473 -0.8530978332 0.4047633356 0.3292274733 -0.8490048171 0.4091224875 0.3343794414 0.3752326307 0.8751067936 -0.3055954395 -0.7387733159 -0.3763147011 -0.5591075330 -0.1170713955 0.6137054698 -0.7808072007 0.5472717497 -0.1760341061 0.8182332341 -0.2810463366 -0.4886442279 -0.8259780719 -0.2812512080 -0.4885238747 -0.8259795287 -0.5423832571 0.4632825370 -0.7008492657 -0.5423903381 0.4632932141 -0.7008367277 -0.2813292001 -0.4883195468 -0.8260737869 -0.5423966044 0.4633026625 -0.7008256319 0.0407198228 -0.9347740023 0.3529014887 -0.2816084527 -0.4880124558 -0.8261601070 0.0127190776 -0.9483719359 0.3169051848 0.6446461669 -0.0843286364 0.7598157676 -0.2827291405 -0.4879744483 -0.8257997160 -0.1243083153 -0.8569758379 0.5001398364 -0.7553371371 0.5415061096 0.3691028888 0.4781093126 0.1973364942 0.8558444913 -0.8340751061 0.5430072720 -0.0972718869 -0.5865453050 0.4444649558 0.6770638878 -0.7622748762 0.5484242921 -0.3437554494 0.1300869947 -0.4869057385 -0.8637130170 -0.2317811347 -0.0065590987 -0.9727458475 -0.2855667507 0.0486080610 -0.9571253247 0.8562274796 0.1740322356 -0.4864023891 -0.2651543072 -0.2861135423 0.9207780592 -0.2616059196 -0.2904183946 0.9204452721 -0.0155769194 -0.3995303383 -0.9165876218 -0.1243851428 0.3791138776 -0.9169520184 0.4508112080 -0.7195121121 0.5282722549 0.6029154485 0.6971481683 0.3879141573 0.5752786337 0.7461691408 0.3350911919 -0.1284973352 0.7228840281 -0.6789161338 0.0804603105 0.9238720409 0.3741478190 -0.0552269438 0.6753858017 -0.7353937745 -0.0807062704 0.6691785897 -0.7387059720 -0.6324197956 0.5760207133 -0.5179240677 -0.6168609764 0.6132169059 -0.4934040557 0.1905397756 -0.6393342870 0.7449471548 0.1918433504 -0.6298646050 0.7526398264 -0.7339846253 -0.6695424253 0.1139276546 -0.6089774743 0.7581979979 -0.2329854752 -0.5364145247 0.4850732026 -0.6906254020 -0.6476619277 0.3981471048 -0.6496252076 -0.5784669084 0.8155879334 -0.0138693488 -0.6260667878 0.4945730444 -0.6028580936 -0.0562875368 0.5817105752 -0.8114459439 -0.5668379910 0.3782727311 0.7318500071 -0.5675224884 0.3727796503 0.7341345636 0.7496581874 0.6536796140 0.1035160099 -0.4456823747 0.1887022744 -0.8750763810 -0.7667708184 0.2581318233 0.5877333356 0.6665231894 -0.7112224909 0.2234041324 -0.3194816158 -0.2253577568 -0.9204050079 -0.0121366749 -0.2659542926 -0.9639092361 0.0336527817 -0.9813420342 -0.1893021452 0.1313628946 -0.1193624697 -0.9841221422 -0.3707175933 -0.8456384593 -0.3840104975 -0.5193325481 0.5203184227 -0.6779103506 0.7198105421 -0.3543839663 0.5968959608 -0.0885586069 -0.3774378263 0.9217906814 -0.3747067952 -0.4097093569 -0.8317049119 0.5981134518 0.0194786410 0.8011746884 0.2504495029 -0.2458352378 -0.9363973955 -0.5460220433 0.5375649704 -0.6425603714 -0.8015429721 0.0071773846 -0.5978940951 -0.7118160831 0.2266427312 -0.6647939051 0.1206849730 -0.3909611429 0.9124606961 -0.1829995981 0.4779257373 -0.8591263800 -0.1796919746 0.3044450791 -0.9354271688 0.5712195204 -0.5223935240 0.6330981484 -0.7179303436 0.1855629561 -0.6709265318 -0.6787113565 0.1681517693 -0.7148957106 0.4543941002 -0.1036043552 0.8847554121 0.2776023966 -0.6755710370 -0.6830378345 0.2818742423 -0.6733551612 -0.6834762165 -0.2923762671 0.9503618864 -0.1064349726 -0.3586173736 -0.7561556261 0.5473776105 -0.2780060920 0.4761114114 -0.8342844460 -0.2819639707 0.4617966720 -0.8409757149 -0.0657057641 -0.6670472716 -0.7421123163 -0.8303937451 -0.4157084473 -0.3709888339 0.0063199924 0.8321450727 -0.5545219885 -0.0080534322 0.8599160099 -0.5103720193 -0.2147941879 -0.9749211289 0.0582430189 0.2406365334 0.8435503241 0.4801217653 -0.5880126703 -0.8082504605 0.0311816081 0.2054167496 -0.7261472388 0.6561357684 0.2056163976 -0.7260532208 0.6561772760 0.2119202810 -0.7230604244 0.6574750316 0.2056144581 -0.7260858821 0.6561417426 0.2118774164 -0.7231578534 0.6573816848 0.2117813567 -0.7232031331 0.6573628262 0.2530161428 -0.7026956493 0.6649824478 0.2120415400 -0.7241828414 0.6561993581 0.2526802486 -0.7023680951 0.6654560474 0.2528259742 -0.7022996661 0.6654729189 0.9662495570 0.1560941974 -0.2049302203 -0.0743490065 0.5831856003 -0.8089294041 0.1762552141 -0.7347429314 0.6550472687 0.1762534365 -0.7347255742 0.6550672154 0.1762257867 -0.7347199139 0.6550810028 0.1762111183 -0.7347168784 0.6550883531 0.1762701831 -0.7347290152 0.6550588498 0.1762568980 -0.7347262855 0.6550654863 -0.1910057599 0.8351109745 -0.5158550765 -0.3674132508 0.4056683406 -0.8369233541 0.7204246641 -0.4903647515 0.4904393070 0.7383738131 -0.2876178993 -0.6099836523 0.6385627496 -0.4539338973 -0.6214351387 -0.5932785601 -0.7974604112 0.1098974189 -0.3980844207 0.8754831070 -0.2739673764 -0.1207526752 -0.1275029295 0.9844601538 -0.1852447543 0.1089537330 -0.9766337415 -0.1482933063 -0.9877620214 -0.0483247806 -0.3329191493 -0.0240078623 -0.9426497030 0.4919510486 0.2707303049 0.8274595263 0.2078972889 0.7669631282 -0.6070801242 0.6658322590 0.2358570562 0.7078409793 -0.8915708228 0.4525831578 0.0164302525 -0.8284508837 0.3961449107 -0.3959019362 -0.8442022427 0.4090949833 -0.3463580057 -0.8524472672 0.4091625113 -0.3254530625 -0.4963440749 -0.6918530926 0.5243871257 -0.2083888608 0.5673778959 -0.7966532532 -0.2537949907 0.5552472970 -0.7920154935 0.1943345704 0.1711124035 -0.9658957605 0.1409463233 -0.2929382234 0.9456856408 0.1326772991 -0.3424107262 0.9301352745
        </DataArray>
        <DataArray type="Float32" Name="contact force" NumberOfComponents="3" format="ascii">