<?xml version="1.0"?>
<VTKFile type="UnstructuredGrid" version="0.1" byte_order="LittleEndian">
  <UnstructuredGrid>
    <FieldData>
      <DataArray type="Float32" Name="TIME"  NumberOfTuples="1" format="ascii"> 0.1500000000 </DataArray>
      <DataArray type="Int32"   Name="STEP"  NumberOfTuples="1" format="ascii"> 15000 </DataArray>
    </FieldData>
    <Piece NumberOfPoints="241" NumberOfCells="241">
      <Points>
        <DataArray type="Float32" NumberOfComponents="3" format="ascii">
 0.4315921830 0.2181703998 0.0077203306 0.5317565453 0.1390350054 -0.0387178739 0.5171799416 0.1517989146 0.1058626715 0.6461588718 0.1125777567 0.0248429914 0.5593045123 0.3670763890 0.1342510859 0.5725776824 0.3610053614 0.1363004728 0.5891821939 0.4492845651 0.1258334827 0.7620140094 0.1785835618 0.0533049136 0.7688058482 0.1850644379 0.0575668242 0.6976730801 0.4554150911 0.0941281951 0.8585920770 0.2308375743 0.0182855576 0.7894986903 0.3771793998 -0.0486789477 0.8253825021 0.3883702113 -0.0445003735 0.8255279334 0.3910173772 0.1371996945 0.8388142938 0.3822829742 0.1380534768 0.9136783951 0.3633507838 0.0779857360 0.8293633801 0.3436163992 0.4740698744 0.9143093533 0.5848385034 0.4280424585 0.9600508157 0.5320280720 0.4702295144 0.9387504849 0.5862675714 0.4099441028 0.9606006597 0.5142220670 0.4692841064 0.9805851937 0.2868120816 0.4243494252 0.9851364408 0.4545454446 0.3567548896 0.2645945124 0.8161723807 0.0116677549 0.0921342510 0.9248895190 0.0887782348 0.2806548830 0.8315825223 0.0613612021 0.1773448648 0.7391215321 0.0549125975 0.0856429264 0.8208290616 0.1381789180 0.0924776870 0.8142827782 0.1410206786 0.1988579352 0.7338629485 0.1173645323 0.6034556178 0.7605885502 0.1908490195 0.7182080671 0.7540223455 0.1989833389 0.6790841774 0.7398048659 0.1009836080 0.7436528170 0.8070247271 0.2175743705 0.6847369829 0.7431947387 0.1007964727 0.6828980333 0.7450343865 0.0949279285 0.6412113912 0.8486641953 0.1913784421 0.6455653994 0.8530536522 0.1883805375 0.5447243265 0.7693493154 0.0476590362 0.7669617841 0.8542327701 0.1576330648 0.5954811436 0.8579148694 0.1113029784 0.5957607926 0.8588375302 0.1039203594 0.2052457728 0.4868962298 0.2841035179 0.2080356233 0.4856589251 0.4021783317 0.1691632956 0.6709075689 0.2144614251 0.1186534133 0.6999610083 0.2395290259 0.2902353194 0.4553160266 0.2980324770 0.3073008080 0.5506289476 0.4093071960 0.3285989176 0.4605618019 0.3698282406 0.3340471263 0.5627189902 0.4078265031 0.3369131933 0.4636449650 0.2315238351 0.1647088501 0.7766718114 0.3847749636 0.3073296192 0.7917804896 0.2226518073 0.4634186138 0.5298076483 0.3614887841 0.4707808102 0.5406529790 0.3655827924 0.2929348963 0.8892060531 0.3444763381 0.4216223235 0.8352001206 0.4105492212 0.4393004560 0.8517012201 0.4088219098 0.4845337117 0.9122952139 0.2354292459 0.6107879574 0.7687700673 0.4075918095 0.4540384234 0.1698265580 0.2368686848 0.5576971967 0.0911028040 0.2478832707 0.7329878508 0.2358198318 0.1950604317 0.7217705081 0.1499860117 0.3477701400 0.7930522418 0.3695968238 0.2589718420 0.8005890378 0.3769566799 0.2671255241 0.5947532104 0.3157649919 0.2372709101 0.5662294810 0.2274190679 0.3721443401 0.5087602767 0.2647229588 0.2766811263 0.5102119706 0.3179256455 0.4363761401 0.4978967776 0.3263681171 0.4392009692 0.4240477564 0.4093032658 0.3864003486 0.6302539075 0.5820006144 0.4993515289 0.2200541902 0.4561729343 0.0097126935 0.2089149271 0.4521039629 0.0142488486 0.1308143900 0.4892924549 0.0997015743 0.1323000633 0.4987035283 0.1072853182 0.1251851468 0.5079665799 0.1112179983 0.1210263098 0.5230109133 0.1206316722 0.1387795960 0.6276986303 0.0473460693 0.1436689854 0.6324531015 0.0489121033 0.1027202696 0.6799395955 0.1797584586 0.1056363137 0.6880791199 0.1701761198 0.1610974860 0.4062022400 0.2005171789 0.2622909461 0.3132870726 0.1711932451 0.2564419481 0.3051344931 0.1710856828 0.2688745478 0.3134161972 0.1721805614 0.2489799036 0.2997623159 0.1704683629 0.2632969110 0.3038994961 0.1722543440 0.2751517154 0.3153810341 0.1729467094 0.2814060940 0.3193059925 0.1735214531 0.2879593073 0.3255866808 0.1739196071 0.2952423936 0.3350203498 0.1741430268 0.0826668230 0.3368472363 0.2022212852 0.3028400157 0.3327272296 0.1755086134 0.3002769797 0.3312314071 0.2607253967 0.3090280549 0.3383562892 0.2610135998 0.0966552799 0.2622255580 0.2278837294 0.0890014383 0.1622323561 0.1832777933 0.1319083060 0.0778996970 0.2460642287 0.1483118138 0.0694826501 0.2559196245 0.2742417944 0.1408006632 0.2819267405 0.2907096660 0.1588650961 0.2829894806 0.2984312240 0.1682666615 0.2834223066 0.3068934287 0.1724358613 0.2843056290 0.7983508334 0.1327073972 0.5022561216 0.3354821219 0.2751187259 0.4455912243 0.3216993306 0.2693286000 0.3568888023 0.2847739214 0.3472844839 0.3186189690 0.6827140077 0.7243635324 0.4537428363 0.7724088384 0.8242154429 0.4602509156 0.8055558354 0.6975954569 0.3725695630 0.7577668606 0.7658288929 0.3127540886 0.7651156752 0.7658610816 0.3113828507 0.7647791883 0.7721918935 0.3151152234 0.5721992375 0.5198473965 0.1397290302 0.6291674244 0.5214306322 0.1871175315 0.6308735871 0.5407231675 0.1931261633 0.6365417558 0.5528712639 0.0166001517 0.6431901634 0.5677203089 0.0169464082 0.6566700406 0.5642406433 0.0154200048 0.7722915883 0.6586318164 0.1801971246 0.8434120510 0.4680827223 0.1582462416 0.8517089349 0.4779615102 0.1607799844 0.7646747186 0.7436488394 0.0444499630 0.7834748298 0.6606022387 0.1809068604 0.8598478334 0.4875647028 0.1631127342 0.7763816278 0.7407171223 0.0421874796 0.7956357454 0.6628893842 0.1815916239 0.8095878317 0.6657556294 0.1822379593 0.8302603062 0.7635519388 0.0912001883 0.9450800616 0.5520827719 0.1035611319 0.9171143094 0.6332018136 0.0117727254 0.9585869196 0.6671559288 0.1853311830 0.9711039782 0.6600820059 0.1786525850 0.4188579395 0.1677724884 0.3532268051 0.3648143497 0.0794964239 0.4031790492 0.1993011626 0.1877408366 0.3358841029 0.2476674254 0.1301249676 0.4004264015 0.1682127023 0.0902130759 0.3695882811 0.2989602953 0.1366836543 0.0663147553 0.3274733361 0.0936286783 0.0396624781 0.3272279326 0.0920293142 0.0470444352 0.3696918486 0.1837020674 0.0348839481 0.3730278574 0.1814026724 0.0369338112 0.3416781657 0.2138086467 0.0952633131 0.1004850191 0.1660503855 0.4518672001 0.0980699453 0.1730418795 0.4484109859 0.2369325534 0.9220706739 0.0384521442 0.4830879443 0.4907567959 0.1070885221 0.4782714290 0.4812670125 0.1071084885 0.5507291212 0.3952744105 0.1993222882 0.8862296587 0.5665689830 -0.0381180574 0.7875633235 0.0706080868 0.1863577253 0.7504556719 0.0907779749 0.2098596097 0.7429168103 0.0930570642 0.2086355745 0.8552741494 0.1150433610 0.2212544165 0.8625350150 0.1280522943 0.2268883978 0.7847647286 0.1876264733 0.1104705529 0.7890741442 0.1912231208 0.1131787131 0.3803194599 0.1829157121 0.4700736469 0.9910961367 0.5904912219 0.2723746122 0.9329652609 0.4647293828 0.2755609253 0.9349490200 0.4595562217 0.2720930197 0.9287129203 0.4577637959 0.2731619595 0.9279352263 0.3698013988 0.1980372870 0.3744837531 0.9173926075 0.0394701144 0.8387231800 0.6488377105 0.2840114914 0.7201697303 0.6076660025 0.2706106661 0.7109874253 0.6125850637 0.2699188744 0.1594705755 0.9241261436 0.2207110857 0.2285745531 0.2936207841 0.0149717922 0.2942803487 0.4287703986 0.0027743234 0.2280146104 0.4248376318 0.2870156925 0.1678100527 0.2246496462 0.3351989213 0.1193965420 0.2976814555 0.2509056127 0.1111658908 0.2873118019 0.2552914271 0.5076274770 0.0636649728 0.3008586562 0.5139111823 0.0644664547 0.2986647853 0.2628382832 0.9242195579 0.4125589915 0.2440591743 0.9523230727 0.2279847709 0.5432966155 0.1832150482 0.4477671576 0.5477093850 0.1808997466 0.4458914517 0.4785899280 0.1847423938 0.3603551753 0.5854980069 0.9273826098 0.2378296800 0.9472443155 0.1470398625 0.1671115141 0.9541443057 0.1529753250 0.2089399250 0.4617937613 0.8177183455 0.5112468906 0.4732212142 0.8462033082 0.5094530241 0.5152629430 0.8711277919 0.0137186079 0.4312719943 0.9379963356 0.1486514739 0.4458803189 0.9375168507 0.1454726437 0.4332606149 0.9132173942 0.1160518693 0.1140194926 0.2350487097 0.0305105232 0.2060393812 0.1515821402 0.0236995079 0.8401077994 0.8980063120 0.2042814705 0.8733587602 0.8892310564 0.3036107079 0.8677100802 0.8682688682 0.3037868073 0.8583624171 0.6648561063 0.3642471422 0.8628854188 0.6690665995 0.3637073847 0.9265274180 0.3641945040 0.3024293232 0.0962173077 0.1045066353 0.4197230113 0.1421448719 0.2258121341 0.3454605990 0.7116585055 0.0618794106 0.2740508686 0.9013316569 0.1787574892 0.2758875128 0.8920975863 0.1835062085 0.2755596038 0.8825523765 0.0183226736 0.2205722918 0.8649470049 0.0160351871 0.2604735992 0.8576615732 0.0200836413 0.2662952373 0.3255101334 0.4887869039 0.4299704574 0.8524911968 0.8812624414 0.0946376490 0.8488378782 0.8840678153 0.0966875577 0.8510163339 0.8871545240 0.0994571853 0.8451750596 0.8869655817 0.0988319260 0.8472006481 0.8902406951 0.1017129934 0.8432383328 0.8937057123 0.1042926873 0.1190941833 0.2214997490 0.0629177952 0.1208455677 0.6626486501 0.4769469806 0.9126618682 0.1031087105 -0.0205833928 0.9163942866 0.1405638785 0.0146775753 0.9147826645 0.1191025390 -0.0054503969 0.9148881661 0.1260720755 0.0010176130 0.6544014786 0.0546330983 0.3153042962 0.6418295116 0.0540246352 0.3132516523 0.5680448989 0.0753550966 0.2788124102 0.9381076156 0.2737107856 0.0306222315 0.3870282429 0.5335495067 0.0256406401 0.5315410274 0.4890279630 0.0028061593 0.1788388757 0.4895101480 0.4262774919 0.1624857045 0.4936543061 0.4193927984 0.1221493261 0.3666788198 0.3296530869 0.1204599514 0.3448551516 0.3989129116 0.1272606202 0.3571602326 0.3320471723 0.3339919091 0.8356696825 0.4399540151 0.3310780428 0.8652576954 0.4324107258 0.4064307343 0.0791348089 0.4224804104 0.0975397731 0.4176594764 0.2289981063 0.1206307471 0.4659757256 0.1831712886 0.5562197572 0.0060955432 0.4269497401 0.5158840490 0.9222400760 0.1458465982 0.5097111061 0.9165792477 0.1422328537
        </DataArray>
      </Points>
      <Cells>
        <DataArray type="Int32" Name="connectivity" format="ascii">
 0 1 2 3 4 5 6 7 8 9 10 11 12 13 14 15 16 17 18 19 20 21 22 23 24 25 26 27 28 29 30 31 32 33 34 35 36 37 38 39 40 41 42 43 44 45 46 47 48 49 50 51 52 53 54 55 56 57 58 59 60 61 62 63 64 65 66 67 68 69 70 71 72 73 74 75 76 77 78 79 80 81 82 83 84 85 86 87 88 89 90 91 92 93 94 95 96 97 98 99 100 101 102 103 104 105 106 107 108 109 110 111 112 113 114 115 116 117 118 119 120 121 122 123 124 125 126 127 128 129 130 131 132 133 134 135 136 137 138 139 140 141 142 143 144 145 146 147 148 149 150 151 152 153 154 155 156 157 158 159 160 161 162 163 164 165 166 167 168 169 170 171 172 173 174 175 176 177 178 179 180 181 182 183 184 185 186 187 188 189 190 191 192 193 194 195 196 197 198 199 200 201 202 203 204 205 206 207 208 209 210 211 212 213 214 215 216 217 218 219 220 221 222 223 224 225 226 227 228 229 230 231 232 233 234 235 236 237 238 239 240
        </DataArray>
        <DataArray type="Int32" Name="offsets" format="ascii">
 1 2 3 4 5 6 7 8 9 10 11 12 13 14 15 16 17 18 19 20 21 22 23 24 25 26 27 28 29 30 31 32 33 34 35 36 37 38 39 40 41 42 43 44 45 46 47 48 49 50 51 52 53 54 55 56 57 58 59 60 61 62 63 64 65 66 67 68 69 70 71 72 73 74 75 76 77 78 79 80 81 82 83 84 85 86 87 88 89 90 91 92 93 94 95 96 97 98 99 100 101 102 103 104 105 106 107 108 109 110 111 112 113 114 115 116 117 118 119 120 121 122 123 124 125 126 127 128 129 130 131 132 133 134 135 136 137 138 139 140 141 142 143 144 145 146 147 148 149 150 151 152 153 154 155 156 157 158 159 160 161 162 163 164 165 166 167 168 169 170 171 172 173 174 175 176 177 178 179 180 181 182 183 184 185 186 187 188 189 190 191 192 193 194 195 196 197 198 199 200 201 202 203 204 205 206 207 208 209 210 211 212 213 214 215 216 217 218 219 220 221 222 223 224 225 226 227 228 229 230 231 232 233 234 235 236 237 238 239 240 241
        </DataArray>
        <DataArray type="UInt8" Name="types" format="ascii">
 1 1 1 1 1 1 1 1 1 1 1 1 1 1 1 1 1 1 1 1 1 1 1 1 1 1 1 1 1 1 1 1 1 1 1 1 1 1 1 1 1 1 1 1 1 1 1 1 1 1 1 1 1 1 1 1 1 1 1 1 1 1 1 1 1 1 1 1 1 1 1 1 1 1 1 1 1 1 1 1 1 1 1 1 1 1 1 1 1 1 1 1 1 1 1 1 1 1 1 1 1 1 1 1 1 1 1 1 1 1 1 1 1 1 1 1 1 1 1 1 1 1 1 1 1 1 1 1 1 1 1 1 1 1 1 1 1 1 1 1 1 1 1 1 1 1 1 1 1 1 1 1 1 1 1 1 1 1 1 1 1 1 1 1 1 1 1 1 1 1 1 1 1 1 1 1 1 1 1 1 1 1 1 1 1 1 1 1 1 1 1 1 1 1 1 1 1 1 1 1 1 1 1 1 1 1 1 1 1 1 1 1 1 1 1 1 1 1 1 1 1 1 1 1 1 1 1 1 1 1 1 1 1 1 1 1 1 1 1 1 1
        </DataArray>
      </Cells>
      <PointData Scalars="overlap">
        <DataArray type="Float32" Name="overlap" format="ascii">
 0.0001891593 0.0000458549 0.0001405023 0.0000202111 0.0000701239 0.0000185864 0.0000137991 0.0000355111 0.0002312303 0.0002977289 0.0000894114 0.0000187657 0.0002559597 0.0000099233 0.0002207349 0.0000620882 0.0001024185 0.0000190823 0.0001383219 0.0000193466 0.0000309816 0.0000529214 0.0000912938 0.0000598177 0.0000682268 0.0001758407 0.0000557572 0.0000328706 0.0001070115 0.0001642422 0.0001585837 0.0000708721 0.0000193036 0.0001044340 0.0000802742 0.0001392834 0.0000162672 0.0000161439 0.0001327623 0.0000126184 0.0000150417 0.0001263813 0.0000485692 0.0000727180 0.0002149823 0.0000310784 0.0000139421 0.0000329348 0.0000093675 0.0000628415 0.0002315096 0.0001859849 0.0000414270 0.0001492008 0.0000467632 0.0000846467 0.0001993789 0.0000307899 0.0002496736 0.0000867274 0.0000050797 0.0000736775 0.0001572941 0.0000466060 0.0000141852 0.0001747655 0.0000575890 0.0000731868 0.0000658563 0.0000282172 0.0000252280 0.0000224946 0.0000148301 0.0000120177 0.0000390329 0.0000051480 0.0000090178 0.0000211390 0.0000131369 0.0000478656 0.0000061241 0.0000332743 0.0000192803 0.0000023424 0.0000485332 0.0000364402 0.0000695896 0.0000140837 0.0000313379 0.0000819539 0.0000956901 0.0001074160 0.0000901854 0.0000642068 0.0001054539 0.0000123674 0.0000295434 0.0000263223 0.0000098058 0.0000458513 0.0000086636 0.0000179747 0.0000923500 0.0000342890 0.0000059397 0.0000067358 0.0000574816 0.0000059491 0.0000494269 0.0000181122 0.0000129360 0.0000405815 0.0000086147 0.0000147864 0.0000282413 0.0000377795 0.0000048675 0.0000322425 0.0000815760 0.0000116821 0.0000334462 0.0000048351 0.0000936139 0.0002234399 0.0002346384 0.0000171790 0.0001619522 0.0006355541 0.0000286075 0.0000306768 0.0000949999 0.0000701214 0.0002018716 0.0000905004 0.0000579968 0.0000081006 0.0000731516 0.0000518812 0.0000286779 0.0000505484 0.0000346068 0.0000616354 0.0000045004 0.0000106404 0.0000040109 0.0000196088 0.0001008623 0.0000407386 0.0000376177 0.0000081618 0.0000112790 0.0000155223 0.0000695464 0.0000354775 0.0000179923 0.0000575494 0.0000466309 0.0000262653 0.0002327096 0.0000550120 0.0000040297 0.0000048830 0.0000298671 0.0000287175 0.0000503262 0.0000543604 0.0000185534 0.0000763417 0.0000030062 0.0000120037 0.0000034141 0.0001426307 0.0002334281 0.0000422712 0.0000523374 0.0000069624 0.0000339511 0.0000244101 0.0000065373 0.0000195780 0.0000027090 0.0000236890 0.0000947830 0.0000396432 0.0000218415 0.0000076161 0.0000396945 0.0000045351 0.0000528793 0.0000582151 0.0000541753 0.0000898738 0.0000180841 0.0000158531 0.0000692830 0.0000708028 0.0000063567 0.0000296450 0.0000056858 0.0000093947 0.0000231780 0.0000227937 0.0000171598 0.0000204470 0.0000142162 0.0000223778 0.0000013073 0.0000061730 0.0000211495 0.0000011424 0.0000344350 0.0000463623 0.0000227540 0.0000260009 0.0000499509 0.0000442636 0.0000212462 0.0000371471 0.0000151048 0.0000148703 0.0000343402 0.0000232793 0.0000247987 0.0000218227 0.0000222786 0.0000187349 0.0000099235 0.0000146814 0.0000146831 0.0000127461 0.0000508601 0.0000641338 0.0000519129 0.0000013170 0.0000153183 0.0000138084 0.0000281056 0.0000156355 0.0000532204 0.0000079052 0.0001095930
        </DataArray>
        <DataArray type="Float32" Name="contact normal" NumberOfComponents="3" format="ascii">
 0.9585070872 -0.2082823751 -0.1946345707 0.2297891417 0.8158282474 0.5306799610 -0.0361407187 0.6509836863 -0.7582308940 -0.2313669975 0.7508948692 -0.6185678685 0.0407980252 -0.0055542475 -0.9991519762 0.1639764600 -0.0725522739 -0.9837926042 0.5609202023 -0.7766941857 -0.2865565713 -0.4054609826 0.6744312317 -0.6170444922 -0.3535862346 0.7155108968 -0.6025121835 -0.2090041335 -0.9323440685 -0.2950454375 -0.8249995038 0.4778564120 0.3017102389 -0.0886445416 -0.4868151274 0.8689954988 -0.0612956442 -0.4229745986 0.9040660003 -0.0749098648 0.1082434260 -0.9912980747 -0.0441946133 -0.0496042783 -0.9977906853 -0.7922889076 -0.0639887228 0.6067814518 0.4909631617 -0.1969427173 0.8486275626 0.4648485360 -0.2330536661 0.8541673298 -0.7081190963 -0.0951680699 -0.6996501868 0.5890736394 -0.7541038898 0.2903783234 -0.6992405211 -0.1824709387 -0.6912069518 -0.1392971707 -0.2806118595 -0.9496595614 0.3754018982 -0.0807133888 0.9233410874 -0.7161997523 -0.5289323174 0.4552894886 0.0196894604 -0.9706875706 0.2395369813 -0.8153442991 -0.5771890793 0.0454581193 0.4355813286 0.7586999067 0.4843999977 0.7022923709 0.5229580636 -0.4830116867 0.7346907895 0.4852571168 -0.4740832991 0.2656677968 0.7120288952 -0.6499503628 0.1470758226 -0.1501091657 -0.9776686252 -0.6209608564 0.7541320162 -0.2137580803 -0.4633236892 0.6511628594 0.6010974043 -0.1914804318 -0.0150042908 -0.9813817379 -0.2651482112 0.7103841433 0.6519591974 -0.6957716580 0.7002625466 0.1597941355 0.3484450499 -0.7560721610 -0.5540225036 0.3815308724 -0.7132668909 -0.5879494330 0.2433694378 0.2053650063 0.9479433163 -0.4138484825 -0.6763620367 0.6093142284 0.5899887880 -0.8046008767 -0.0673101711 0.5740522244 -0.8152841098 -0.0759991050 0.5759002728 0.8122977892 0.0922560434 0.4959311733 0.7811236136 -0.3793391249 0.1178264401 -0.4058300986 0.9063216102 0.7994505110 -0.0590279426 0.5978248760 -0.1947373129 0.8433770761 -0.5007918595 -0.1604229439 0.2363774944 -0.9583267497 -0.1350177267 0.6964491900 -0.7047898547 -0.1528239426 0.2468049497 -0.9569389528 -0.1810131263 0.5645170556 0.8053289651 0.4157946019 -0.4681600439 -0.7797057280 0.2641451097 -0.8969135888 0.3546454220 -0.4544928282 0.3441902483 -0.8215651782 -0.5795966550 0.6560273265 -0.4834210011 0.6349358770 -0.6364650188 -0.4379140463 0.0425229147 -0.2182508222 -0.9749658355 0.2077748440 -0.2191901093 -0.9533023184 -0.0864571061 -0.7223954915 0.6860538774 -0.2029572956 -0.0880532133 -0.9752204714 0.2422121651 -0.2285553184 -0.9429187311 0.1946957073 0.1703410545 -0.9659593712 -0.3701996683 0.6664101221 0.6471860279 0.1255892976 0.8421009038 -0.5244934663 -0.6445404777 -0.7438812236 0.1766587040 0.1471033376 -0.3780480748 0.9140242126 0.1096097375 -0.2650895877 0.9579734944 0.2776346122 0.5670735196 -0.7754654380 0.8153218962 0.4138077014 0.4049856687 0.2983402240 0.6010071258 -0.7414739008 0.2401051120 0.6473139979 -0.7234183598 0.8888506214 0.4302027783 -0.1577027026 -0.3583441774 -0.8141781709 -0.4568406249 -0.1557786768 0.9528923854 0.2602481617 -0.5422729794 0.7316771422 0.4130236983 0.3016718565 0.5645344000 -0.7683065809 0.3498369549 0.5643090580 -0.7477762981 0.3016566708 0.5645342288 -0.7683126691 0.3016526116 0.5645341829 -0.7683142966 0.1602665885 -0.5027862238 0.8494237069 0.1589598014 -0.4956506519 0.8538513997 -0.1323703054 -0.9232259447 -0.3607380730 0.6629828366 -0.6164222519 -0.4248262771 0.3928200035 -0.3302975554 -0.8582516937 -0.1531480987 0.0970360813 0.9834275056 -0.1528246758 0.0966168359 0.9835190926 -0.1526865615 0.0964382055 0.9835580748 -0.1528712211 0.0966771644 0.9835059307 -0.1522269143 0.0958420489 0.9836875867 -0.1524177293 0.0960896893 0.9836338787 -0.1523240725 0.0959795973 0.9836591350 -0.1523044223 0.0962126572 0.9836394093 -0.1527118740 0.0968095955 0.9835176591 0.0938275109 -0.2755934175 -0.9566842041 -0.1511328154 0.0972273925 0.9837203395 0.1821693069 -0.1804746484 -0.9665625923 0.1792790719 -0.1734819619 -0.9683816516 0.4164413674 -0.3611116271 -0.8343710088 0.7832052087 0.3920898271 0.4825506902 0.4157367263 0.3619639493 -0.8343530870 0.8024746828 -0.5855902231 -0.1145359076 0.1553312177 -0.0922029972 -0.9835501106 0.1549456615 -0.0885408227 -0.9839473384 0.1341547601 -0.0591829582 -0.9891915274 0.1546678869 -0.0875562662 -0.9840791355 -0.0511938857 0.4565326448 -0.8882325879 -0.1343904979 0.1984096741 -0.9708618827 -0.2859923819 0.8479473234 0.4463112078 0.1980082344 -0.5644856153 0.8013418305 0.9009953558 0.0969777939 -0.4228506548 -0.7137711749 -0.5865712609 -0.3827072848 -0.9221863457 0.3619783888 -0.1361763190 0.0983950525 -0.7230039540 0.6838009186 0.1024579737 -0.7064971343 0.7002600680 0.1166143296 -0.4123789773 0.9035179452 0.4452453068 0.8761706882 -0.1846118682 -0.3888246124 -0.4735606094 -0.7902884094 0.2320770980 0.5521537451 -0.8007911478 0.0485546369 -0.0428299863 0.9979018186 0.0485456262 -0.0427995005 0.9979035649 0.1408752961 -0.0911191086 0.9858252680 0.1491353981 -0.5618904050 -0.8136570567 -0.1748439609 0.3738430193 -0.9108627703 -0.1748564106 0.3738539481 -0.9108558948 -0.0890695380 -0.8313306624 0.5485945198 0.1491025299 -0.5616993664 -0.8137949726 -0.1748674282 0.3738636194 -0.9108498102 -0.0871245325 -0.8647712871 0.4945502369 0.1488848816 -0.5614207791 -0.8140270271 0.1477300300 -0.5614446061 -0.8142209728 -0.3087750570 -0.8278993196 0.4682314394 -0.8591521545 0.5071582164 -0.0681771147 0.0194475257 0.2893235051 0.9570338046 -0.7155416128 0.4708061209 -0.5160831297 0.0623855761 -0.2402971885 -0.9686925731 -0.8481339981 0.4427686189 0.2909031993 -0.5381861624 0.4658213423 -0.7024002645 0.5310689426 -0.5316092956 -0.6598161373 0.1612662179 -0.1130583630 -0.9804136951 0.9771060530 0.2051784354 -0.0562634064 0.6014816929 0.0771775742 -0.7951499199 0.1710737940 0.9659589481 0.1940542903 0.1133917314 0.9610634119 0.2519909396 -0.6461200899 -0.2461421187 0.7224561487 -0.6388122417 -0.2549235356 0.7259014471 0.4230773936 -0.4593804650 -0.7810090316 0.1037082404 0.4965461409 0.8617926264 0.0895735194 0.5098306312 0.8555988033 -0.8186402465 0.5710470170 -0.0611019740 0.7980738822 0.2215678205 0.5603443401 0.1816972978 -0.6479026810 0.7397352283 -0.3926026282 0.8318770756 0.3922291517 0.3291217008 0.8086459236 0.4876173462 -0.1340022452 0.9502510392 0.2811874122 0.2653184275 0.6184223057 -0.7397026320 0.2445233321 0.6101204483 -0.7536321242 -0.3425306634 0.4914002659 -0.8007487267 -0.3413624617 0.5312017628 -0.7754330126 -0.1515120837 -0.5726973834 0.8056437150 -0.1542256743 -0.5626922108 0.8121526441 -0.4626382165 0.6715404830 -0.5787912061 -0.6796238164 -0.7132726372 -0.1713289619 -0.4595985682 0.6937748485 -0.5544777864 -0.1745049884 0.3972148603 -0.9009818887 -0.2889409335 0.3051458914 -0.9074134239 -0.4860935352 0.7935157828 -0.3661226264 -0.8223371102 -0.5689345780 -0.0086673655 -0.2947696086 0.4045964735 -0.8656861854 0.3555617742 0.4792642982 -0.8024223060 0.3014250322 0.5228275970 -0.7973670759 -0.8548497719 0.3775719766 0.3559090753 0.5936753681 0.7133856811 0.3723310723 -0.5464956348 -0.7802009722 -0.3043500685 0.5132594043 -0.6432066611 0.5681988869 0.4430088832 -0.3294614366 -0.8337855187 0.6215607031 -0.6342844563 -0.4597233090 0.1522329021 -0.9864767773 -0.0607347626 0.3480086813 -0.3990676554 0.8483130107 0.3483324943 -0.3983740852 0.8485060764 0.5471062454 -0.1074711015 -0.8301353616 0.5507553431 0.3737345992 0.7463182976 -0.1392310789 0.4156264318 -0.8988155405 -0.1359685149 0.4150973686 -0.8995591907 0.3761926188 -0.2586057110 0.8897202930 0.7886185241 -0.6134604389 -0.0417984842 0.1743514557 0.7265807756 0.6645915636 -0.1860201000 0.6795420030 -0.7096613196 0.6548445411 -0.2885845316 -0.6984966680 0.6626481742 -0.2883718905 -0.6911866969 -0.0834495669 0.9296464862 0.3588782251 -0.4351286934 -0.0922202053 -0.8956329907 -0.3323801552 0.1287055623 -0.9343223805 -0.2996638014 -0.3195523097 0.8989371099 0.2163454988 0.4052925250 -0.8882187762 0.2561640287 0.1502569213 -0.9548836830 0.2347647684 -0.4340329383 0.8697706088 -0.3338761936 0.0862567623 -0.9386620576 -0.2781071778 0.0688401282 -0.9580800772 0.5856996401 -0.6958984283 -0.4155494062 0.5895915211 -0.6934122126 -0.4141996400 -0.2445759075 0.9165590640 -0.3163891713 -0.3724009272 0.9188957328 0.1301851822 -0.5435569636 -0.7424069161 0.3916347766 0.1208510784 0.3980137402 -0.9093844508 0.3080320844 -0.7176857669 -0.6245345266 -0.5503591818 -0.5001989823 -0.6685100965 0.1463026913 0.4148761660 0.8980385790 0.2315054619 0.7918073198 -0.5651958859 0.1974215917 0.8212701802 -0.5352943173 -0.1828397703 -0.9821177162 0.0448821774 -0.0883282186 -0.6610220763 0.7451496095 -0.0883877388 -0.6610647972 0.7451046514 -0.0561481452 -0.6370283061 0.7687927699 -0.0875580307 -0.6620851607 0.7442961986 -0.0566635788 -0.6366885255 0.7690363843 -0.0565320884 -0.6365990113 0.7691201608 0.9458693248 0.2132285789 0.2446728297 0.2855034030 0.5212994465 -0.8041981683 -0.1194144533 -0.6742937225 0.7287442378 -0.1194263152 -0.6742751881 0.7287594431 -0.1194072155 -0.6742779608 0.7287600075 -0.1194222389 -0.6742757798 0.7287595636 0.0383449612 0.7820952209 -0.6219780779 0.0452192166 0.3207286269 -0.9460911004 0.4306720818 -0.4008717384 0.8085934747 -0.6215115363 -0.7652808944 -0.1675367509 -0.2583748305 0.8234370209 -0.5051672193 -0.4940824104 -0.1173390095 0.8614604626 -0.0732378340 -0.9971331253 -0.0190197306 0.1392960098 -0.1122087948 -0.9838728617 0.0446989858 0.3607429783 0.9315935295 0.4370806293 0.7381303820 -0.5139300173 0.2554479344 0.3311600694 0.9083387921 0.1842983969 -0.1707508259 -0.9679247163 0.1128450854 -0.1476294739 -0.9825841059 -0.8141047222 0.3849932142 -0.4347570888 -0.6568795270 -0.6906466269 0.3025169811 0.1201474310 0.4809005379 -0.8685040400 0.6116388135 0.1204350695 -0.7819164635 -0.3005383733 -0.2183181793 0.9284470145 -0.2989238075 -0.2691805535 0.9155251973
        </DataArray>
        <DataArray type="Float32" Name="contact force" NumberOfComponents="3" format="ascii">