<?xml version="1.0"?>
<VTKFile type="UnstructuredGrid" version="0.1" byte_order="LittleEndian">
  <UnstructuredGrid>
    <FieldData>
      <DataArray type="Float32" Name="TIME"  NumberOfTuples="1" format="ascii"> 0.3500000000 </DataArray>
      <DataArray type="Int32"   Name="STEP"  NumberOfTuples="1" format="ascii"> 35000 </DataArray>
    </FieldData>
    <Piece NumberOfPoints="259" NumberOfCells="259">
      <Points>
        <DataArray type="Float32" NumberOfComponents="3" format="ascii">
 0.4718813294 0.2357008367 -0.2047630768 0.5823538046 0.1583563470 -0.1483222146 0.6713640099 0.1213343402 -0.2726095006 0.6453818220 0.3689054161 -0.1232319912 0.6581032056 0.3622073842 -0.1264768433 0.6754760221 0.4503911103 -0.1365222870 0.7937202527 0.1804977733 -0.2834541489 0.8019795854 0.1863537650 -0.2815082072 0.7657978805 0.4551818586 -0.2045914811 0.8746756338 0.2319187812 -0.3473765220 0.7957513883 0.3856961288 -0.3755331704 0.8314054657 0.3952103173 -0.3838348347 0.8962445521 0.3828240786 -0.2145070738 0.9083856400 0.3735722147 -0.2190385830 0.9556692585 0.3569565733 -0.3030615456 1.0236634846 0.2557396281 0.2068740470 1.0194148031 0.2346468528 0.2043834575 1.0131487715 0.3115579118 0.1029028140 1.0157960119 0.3064930279 0.0951627829 1.1478237394 0.4714176618 0.0538574371 1.1553903869 0.4789773733 0.0373228342 1.1353290372 0.2477115806 -0.0088503777 1.1410178817 0.4363550756 -0.0751862873 1.1268240154 0.4200068527 -0.0633749198 0.3883770477 0.8479194687 -0.0621352951 0.2850551609 0.7590572905 -0.0354243739 0.2406395739 0.8308695512 0.0792075897 0.3747839135 0.8405895006 0.0600218623 0.7316503815 0.7545239984 -0.0611603100 0.8411360022 0.7431428207 -0.0952115573 0.7689302228 0.7385251067 -0.1733100217 0.8748488111 0.7934565929 -0.0836280055 0.7743548883 0.7417107508 -0.1752977083 0.7706630191 0.7440954079 -0.1799889579 0.7726514807 0.8408219556 -0.0685609924 0.7759257369 0.8452857296 -0.0726307980 0.6265561582 0.7772383757 -0.1728407015 0.8782900836 0.8445808660 -0.1447730069 0.7021466648 0.8583220338 -0.1261056273 0.6998435112 0.8598413495 -0.1330208417 0.3759986766 0.4887169412 0.1510936786 0.4204736290 0.4776217532 0.2599498134 0.3292657710 0.6790471885 0.1110127799 0.2929104217 0.7077329559 0.1543677056 0.4582017226 0.4530390361 0.1315126217 0.5197064401 0.5381356869 0.2351241744 0.5300890189 0.5364772013 0.2285465228 0.5198207640 0.4509390918 0.1849183709 0.5448781572 0.5493382850 0.2248958371 0.4786335389 0.4651367271 0.0533670311 0.3923429419 0.7704479399 0.2779836551 0.4686992229 0.7937429091 0.0767968227 0.6469978359 0.5156915069 0.1332030909 0.6560055951 0.5258821877 0.1350604948 0.5047496701 0.8812011010 0.2016386041 0.6448021883 0.8173028517 0.2134829447 0.6617227314 0.8332383118 0.2065825840 0.6461438717 0.9062855465 0.0327974076 0.8159682171 0.7445358835 0.1385616480 0.8207823079 0.2269317896 -0.1373786050 0.8590905367 0.1292450051 0.0033743486 0.9079322210 0.3527230819 -0.0907652441 0.9183271574 0.3591355820 -0.0854278831 0.7118717414 0.3080781937 -0.0433226218 0.7275559516 0.2099609396 0.0868486593 0.7038258733 0.2968146365 0.1725702539 0.6938755590 0.3054354762 0.1801584883 0.8548322501 0.5502678999 0.2051213810 0.2903965980 0.4803012509 -0.1116567419 0.2813550929 0.4762607651 -0.1036967506 0.2412391932 0.5090883546 0.0062777307 0.2459170954 0.5177809416 0.0134083377 0.2412677241 0.5269446505 0.0202129721 0.2416897723 0.5413050090 0.0314311354 0.2422516367 0.5542285504 0.0415204585 0.2377749807 0.5621609452 0.0474099645 0.2382546495 0.5759384109 0.0581705549 0.2388777564 0.6509524919 -0.0364697501 0.2442964931 0.6553798274 -0.0364623801 0.2555945821 0.6933652085 0.1031014085 0.2554367919 0.7021624354 0.0936512238 0.3000128588 0.4168459899 0.0839326392 0.3780742002 0.3230732312 0.0143308406 0.3720637617 0.3151748653 0.0158064222 0.3845732064 0.3228815351 0.0128950808 0.3645442687 0.3101461699 0.0175650898 0.3787937212 0.3135997842 0.0143544420 0.3908243276 0.3245474498 0.0114813646 0.3971105657 0.3281821342 0.0100235755 0.4037622404 0.3341666969 0.0084454741 0.4112325965 0.3432793521 0.0066452885 0.2230701589 0.3504785184 0.1092271117 0.4186580080 0.3406072661 0.0050420890 0.4464449146 0.3321581074 0.0852128138 0.4551606387 0.3389127343 0.0827963012 0.2404974716 0.2735318833 0.1233029487 0.2111730215 0.1779178670 0.0780878798 0.2681360261 0.0871745979 0.1157255661 0.4176111453 0.1416949714 0.1020540491 0.4344928878 0.1590007385 0.0982910053 0.4424441300 0.1680482821 0.0965247865 0.4509146617 0.1718205744 0.0945775834 0.9838250024 0.0960739558 0.1184637649 0.5224704641 0.2474225184 0.2487537670 0.4935008228 0.2587550988 0.1652664200 0.4978061293 0.2586791705 0.1664038277 0.4533134237 0.3450188317 0.1468635507 0.8965707527 0.6937675861 0.1528504876 0.8889075706 0.6152934735 0.0003851883 0.9836144833 0.7938730655 0.1439673095 0.9807159615 0.6661176724 0.0378732770 0.9805112343 0.6689891375 0.0314834981 0.9837927720 0.6748746699 0.0344409228 0.9266489699 0.7492680226 -0.0028786572 0.6690554735 0.5201411236 -0.1129762862 0.7391228314 0.5157491644 -0.0892102370 0.7440734714 0.5344013046 -0.0829809890 0.6874119995 0.5608880619 -0.2486172934 0.6946928557 0.5754020555 -0.2496904836 0.7064835546 0.5715813466 -0.2562134445 0.8788394325 0.6477862366 -0.1382294712 0.9253107354 0.4572406497 -0.1964168912 0.9345750493 0.4665691664 -0.1964016050 0.8896460035 0.6492851035 -0.1414578712 0.9436031276 0.4756455451 -0.1965344306 0.8388125582 0.7410638334 -0.2630626368 0.8470361221 0.7524075065 -0.2609904468 0.9013755553 0.6510660667 -0.1450402641 0.8488652711 0.7382759240 -0.2694244669 0.8578068275 0.7489918318 -0.2677630472 0.9147986029 0.6533620912 -0.1492644515 0.9079287298 0.7575172193 -0.2351613387 1.0060201928 0.5417447329 -0.2784716913 0.9524598006 0.6311389707 -0.3486777873 1.0549660103 0.6490976258 -0.1997863984 1.0328142989 0.7020819208 -0.2208148022 1.0638028908 0.6421672926 -0.2109442031 0.5794814969 0.1574350873 0.1182731775 0.5411989310 0.0673743646 0.1785189081 0.3698267001 0.1867459346 0.1822140060 0.4262765311 0.1265286408 0.2228904017 0.4216981080 0.1174889491 0.2237561791 0.3466084344 0.0879650962 0.2185099008 0.3673436740 0.1491868533 -0.1089443288 0.3748986207 0.1120674917 -0.1317518788 0.4154652783 0.1957032400 -0.1637950889 0.4187957259 0.1983951445 -0.1616035989 0.4222286013 0.1957904874 -0.1611052834 0.4225107673 0.2011794279 -0.1592510886 0.4262132605 0.1986165100 -0.1586629989 0.4268639890 0.2041129838 -0.1566115531 0.4190157977 0.2275347880 -0.0912658455 0.4285295607 0.2319294205 -0.0900291635 0.2400451816 0.9679870479 0.1046387233 0.3469830795 0.9461248729 -0.0614063488 0.6623461512 0.3919312482 -0.0577563363 0.9017102403 0.5699284376 -0.3882318356 0.9064752972 0.5680436531 -0.3928762841 0.8580040136 0.0610494448 -0.1756517744 0.8330085557 0.0805343960 -0.1391525047 0.8256858847 0.0831767481 -0.1374425342 0.9363457926 0.1000110710 -0.1646057931 0.9459408612 0.1122394276 -0.1611277523 0.8358080884 0.1839521564 -0.2378135639 0.8410155683 0.1871565236 -0.2366074125 1.1113679345 0.5642837793 -0.1352967072 1.0481858623 0.5697427854 -0.0619924022 1.0502770480 0.4409088300 -0.1195153532 1.0505687742 0.4359668092 -0.1237885266 1.0450173316 0.4343213268 -0.1206698555 1.0120187263 0.3529406961 -0.1959689783 0.9770692782 0.6270056426 -0.0660166852 0.8506321390 0.5967048458 -0.0355949697 0.3333715746 0.9323870405 0.1306814175 0.3385506523 0.9309387117 0.1365694770 0.2900080823 0.3177020855 -0.1205723382 0.3995828182 0.3019257016 -0.1830726350 0.3943373250 0.4258785754 0.1416487709 0.2970755604 0.1913772436 0.2037322525 0.3425732655 0.2246913492 0.1952693227 0.2721046209 0.3061403662 0.1388490695 0.2653297794 0.2957609946 0.1452232980 0.5030997767 0.9114640241 0.2780730782 0.7170478805 0.2276097890 0.1780134470 0.7334430244 0.1582280981 0.1591997134 0.7370047843 0.1560624215 0.1555043442 0.6388464874 0.1715678419 0.1045918274 0.7421571651 0.9172784315 -0.0001278352 0.7458953058 0.9119411458 -0.0774110549 1.0588140303 0.3536275724 -0.1377823265 0.7490061414 0.7826449496 0.2217961197 0.7287611120 0.8181669615 0.2877318644 0.5673275715 0.9409911945 -0.0272573792 0.5797880886 0.9402446807 -0.0354958943 0.5560250216 0.9189235458 -0.0599140628 0.1849384442 0.2621181396 -0.0684999968 0.2631151594 0.1762358269 -0.1131428279 0.9659264331 0.8816501832 -0.1247997874 1.0316287765 0.8634838003 -0.0447917843 1.0236302489 0.8489974395 -0.0416470352 1.0250817592 0.8428011089 -0.0439461388 1.0230286410 0.6296623362 0.0078789010 1.0269522905 0.6330315370 0.0065437871 1.0248833580 0.6355760552 0.0026711440 1.0474227233 0.3388007926 -0.0986174450 0.8177343498 0.0478673365 -0.0673086803 0.8207464148 0.0418457539 -0.0728882430 1.0027079025 0.1572183047 -0.1261741428 0.9942807018 0.1623133775 -0.1228557871 0.9553558156 0.0027074617 -0.1812611083 0.9484912445 0.0015881997 -0.1296448919 0.5400687225 0.4741997125 0.2438295973 0.4314095069 0.1711246259 -0.2169823835 0.4959368245 0.3395224789 -0.1650240281 1.0122285153 0.8387674214 -0.2215844953 0.9392314601 0.8651852048 -0.2413332983 0.9366770958 0.8682513434 -0.2376235343 0.9399454914 0.8708013705 -0.2358183712 0.9341967129 0.8710616741 -0.2341690085 0.9373899938 0.8736170615 -0.2323754345 0.9348893183 0.8763784688 -0.2289783295 0.9381016016 0.8791442079 -0.2269840750 0.9324192380 0.8792244634 -0.2254840180 0.9355403070 0.8821739776 -0.2233189345 0.9329814296 0.8855598220 -0.2192755376 0.2002594489 0.2457983588 -0.0409940389 0.5456958293 0.5081582768 0.3244052682 0.9031932061 0.1059533841 -0.4111653868 0.9215725779 0.1402116248 -0.3772724958 0.9078010413 0.1181111858 -0.3988442475 0.9115599745 0.1205567087 -0.3968110158 0.9143974929 0.1269604057 -0.3903796954 0.7785059544 0.0393387117 -0.0088076398 0.7660123190 0.0393612778 -0.0062477780 0.6863262508 0.0661264755 -0.0104678706 0.9683108148 0.2665795986 -0.3683642671 0.4081977034 0.5212339901 -0.1779627202 0.3095462643 0.6716020740 -0.0854220402 0.3004592183 0.6601662496 -0.0900762715 0.4566513078 0.5499371288 -0.1518643713 0.5805319367 0.5022187916 -0.2278499657 0.4081154042 0.4847402324 0.2871795165 0.4019746672 0.4805855922 0.2931260264 0.3845446163 0.4858948343 0.2928293387 0.3070275365 0.3682734677 0.2156244734 0.3249231432 0.3461363664 0.2824855814 0.3286062525 0.3409609703 0.2793471257 0.3120352508 0.3584080563 0.2154208651 0.5735772857 0.8185071237 0.2723428922 0.5700532834 0.8487026279 0.2682602119 0.5850524011 0.8591039560 0.2659809367 0.5868573623 0.0639066710 0.1816028402 0.5503382675 0.0474553655 0.2335615670 0.5454781950 0.0475051829 0.2417395819 0.2515796574 0.4282554812 0.1339861486 0.2669330218 0.4810953802 0.0860150563 0.2597962433 0.4793455227 0.0861771596 0.6442494494 0.9224475089 -0.0612541790 0.6368471687 0.9173354222 -0.0627650241
        </DataArray>
      </Points>
      <Cells>
        <DataArray type="Int32" Name="connectivity" format="ascii">
 0 1 2 3 4 5 6 7 8 9 10 11 12 13 14 15 16 17 18 19 20 21 22 23 24 25 26 27 28 29 30 31 32 33 34 35 36 37 38 39 40 41 42 43 44 45 46 47 48 49 50 51 52 53 54 55 56 57 58 59 60 61 62 63 64 65 66 67 68 69 70 71 72 73 74 75 76 77 78 79 80 81 82 83 84 85 86 87 88 89 90 91 92 93 94 95 96 97 98 99 100 101 102 103 104 105 106 107 108 109 110 111 112 113 114 115 116 117 118 119 120 121 122 123 124 125 126 127 128 129 130 131 132 133 134 135 136 137 138 139 140 141 142 143 144 145 146 147 148 149 150 151 152 153 154 155 156 157 158 159 160 161 162 163 164 165 166 167 168 169 170 171 172 173 174 175 176 177 178 179 180 181 182 183 184 185 186 187 188 189 190 191 192 193 194 195 196 197 198 199 200 201 202 203 204 205 206 207 208 209 210 211 212 213 214 215 216 217 218 219 220 221 222 223 224 225 226 227 228 229 230 231 232 233 234 235 236 237 238 239 240 241 242 243 244 245 246 247 248 249 250 251 252 253 254 255 256 257 258
        </DataArray>
        <DataArray type="Int32" Name="offsets" format="ascii">
 1 2 3 4 5 6 7 8 9 10 11 12 13 14 15 16 17 18 19 20 21 22 23 24 25 26 27 28 29 30 31 32 33 34 35 36 37 38 39 40 41 42 43 44 45 46 47 48 49 50 51 52 53 54 55 56 57 58 59 60 61 62 63 64 65 66 67 68 69 70 71 72 73 74 75 76 77 78 79 80 81 82 83 84 85 86 87 88 89 90 91 92 93 94 95 96 97 98 99 100 101 102 103 104 105 106 107 108 109 110 111 112 113 114 115 116 117 118 119 120 121 122 123 124 125 126 127 128 129 130 131 132 133 134 135 136 137 138 139 140 141 142 143 144 145 146 147 148 149 150 151 152 153 154 155 156 157 158 159 160 161 162 163 164 165 166 167 168 169 170 171 172 173 174 175 176 177 178 179 180 181 182 183 184 185 186 187 188 189 190 191 192 193 194 195 196 197 198 199 200 201 202 203 204 205 206 207 208 209 210 211 212 213 214 215 216 217 218 219 220 221 222 223 224 225 226 227 228 229 230 231 232 233 234 235 236 237 238 239 240 241 242 243 244 245 246 247 248 249 250 251 252 253 254 255 256 257 258 259
        </DataArray>
        <DataArray type="UInt8" Name="types" format="ascii">
 1 1 1 1 1 1 1 1 1 1 1 1 1 1 1 1 1 1 1 1 1 1 1 1 1 1 1 1 1 1 1 1 1 1 1 1 1 1 1 1 1 1 1 1 1 1 1 1 1 1 1 1 1 1 1 1 1 1 1 1 1 1 1 1 1 1 1 1 1 1 1 1 1 1 1 1 1 1 1 1 1 1 1 1 1 1 1 1 1 1 1 1 1 1 1 1 1 1 1 1 1 1 1 1 1 1 1 1 1 1 1 1 1 1 1 1 1 1 1 1 1 1 1 1 1 1 1 1 1 1 1 1 1 1 1 1 1 1 1 1 1 1 1 1 1 1 1 1 1 1 1 1 1 1 1 1 1 1 1 1 1 1 1 1 1 1 1 1 1 1 1 1 1 1 1 1 1 1 1 1 1 1 1 1 1 1 1 1 1 1 1 1 1 1 1 1 1 1 1 1 1 1 1 1 1 1 1 1 1 1 1 1 1 1 1 1 1 1 1 1 1 1 1 1 1 1 1 1 1 1 1 1 1 1 1 1 1 1 1 1 1 1 1 1 1 1 1 1 1 1 1 1 1 1 1 1 1 1 1
        </DataArray>
      </Cells>
      <PointData Scalars="overlap">
        <DataArray type="Float32" Name="overlap" format="ascii">
 0.0001991246 0.0000584832 0.0000461240 0.0000664052 0.0000142337 0.0000034710 0.0000382431 0.0002352442 0.0002632459 0.0000916641 0.0000553809 0.0002198151 0.0000012245 0.0002067705 0.0000654198 0.0001216578 0.0000288966 0.0000057789 0.0002684074 0.0001256198 0.0000793004 0.0000866910 0.0000363315 0.0000020005 0.0000123855 0.0000617374 0.0000423370 0.0000040478 0.0001619195 0.0000867976 0.0000561140 0.0000954744 0.0001139263 0.0001702312 0.0000150314 0.0000073516 0.0001045235 0.0000267335 0.0000277527 0.0001403432 0.0000543312 0.0000755396 0.0001825382 0.0000185700 0.0000286072 0.0000089163 0.0000025840 0.0000285219 0.0000913954 0.0002417593 0.0002102761 0.0000259440 0.0001115779 0.0000097222 0.0001277559 0.0002207000 0.0000585492 0.0002396348 0.0000444195 0.0000729513 0.0000191599 0.0000652146 0.0001327562 0.0000321710 0.0000467166 0.0000168160 0.0000207173 0.0000572642 0.0000795877 0.0000701980 0.0000087313 0.0000118435 0.0000343526 0.0000335076 0.0000069544 0.0000148767 0.0000039030 0.0000658063 0.0000246456 0.0000617196 0.0000385425 0.0000240046 0.0000457514 0.0000337085 0.0000675813 0.0000109558 0.0000295457 0.0000805193 0.0000946450 0.0001065759 0.0000893412 0.0000680444 0.0001057716 0.0000103662 0.0000298283 0.0000248200 0.0000195336 0.0000322561 0.0000173161 0.0000952449 0.0000403301 0.0000110638 0.0000584023 0.0000358058 0.0000002788 0.0000579504 0.0001102567 0.0000406209 0.0000124129 0.0000299257 0.0000075451 0.0000637075 0.0000022433 0.0000289847 0.0000157330 0.0000114822 0.0000165329 0.0000590726 0.0000728028 0.0000087014 0.0000036388 0.0000324305 0.0001603341 0.0000170487 0.0000969488 0.0000316484 0.0000650179 0.0000296541 0.0000331051 0.0001674382 0.0000330993 0.0001374778 0.0000406318 0.0002122738 0.0000408939 0.0000183644 0.0000283399 0.0000217622 0.0001210800 0.0000466745 0.0000473560 0.0000599896 0.0000518995 0.0001218709 0.0000978878 0.0000255952 0.0000938195 0.0000075500 0.0000817705 0.0000154727 0.0000021274 0.0000768198 0.0000362754 0.0000750264 0.0001154279 0.0000314911 0.0000880050 0.0000276084 0.0000238422 0.0000089016 0.0000529800 0.0000491243 0.0000159421 0.0002266492 0.0000498190 0.0000198203 0.0000030612 0.0000450354 0.0000374403 0.0000599945 0.0000459360 0.0000693648 0.0000024233 0.0000516867 0.0000641582 0.0000812596 0.0000427708 0.0000483707 0.0000330512 0.0000571897 0.0000000407 0.0000058922 0.0000199409 0.0000159135 0.0001101789 0.0000113838 0.0000281804 0.0000146210 0.0000450056 0.0000197600 0.0000298513 0.0000565671 0.0000372070 0.0000818188 0.0000188566 0.0000494776 0.0000812350 0.0000557697 0.0000283028 0.0000007202 0.0000600074 0.0000083566 0.0000010075 0.0000017298 0.0000192751 0.0000338583 0.0000045284 0.0000244626 0.0000227223 0.0000004324 0.0000447897 0.0000166473 0.0000134078 0.0000295218 0.0000178865 0.0000147931 0.0000278589 0.0000197057 0.0000082031 0.0000520705 0.0000514810 0.0000246566 0.0000183531 0.0000392987 0.0000200462 0.0000195080 0.0001156526 0.0000190417 0.0000210096 0.0000018496 0.0000391225 0.0000285775 0.0000254440 0.0000275000 0.0000363670 0.0000181316 0.0000108943 0.0000229610 0.0000113264 0.0000042454 0.0000182687 0.0000037884 0.0000421222 0.0000142928 0.0000401262 0.0000361237 0.0001493393 0.0000368858 0.0000170181 0.0000300033 0.0000096159 0.0000107448 0.0000472491 0.0000594513 0.0000421063 0.0000161701 0.0000205382 0.0000092082 0.0001128854
        </DataArray>
        <DataArray type="Float32" Name="contact normal" NumberOfComponents="3" format="ascii">
 0.8124620834 -0.2259507119 -0.5374491966 -0.1707289580 0.7996552607 -0.5756761997 -0.3712096106 0.8088439699 -0.4560426047 -0.3170762495 0.0755897640 -0.9453829063 -0.2009911662 0.0031193684 -0.9795880872 0.3719115187 -0.7700822180 -0.5183195924 -0.5545349879 0.7373003074 -0.3858486800 -0.4983864945 0.7751316292 -0.3883063991 -0.3587644837 -0.8967886503 -0.2589559073 -0.6319076731 0.4808134043 0.6078742986 0.1965807220 -0.5542880795 0.8087773146 0.2386692099 -0.4946112918 0.8357013093 -0.4148655719 0.1919373364 -0.8894080144 -0.3985456989 0.0340358598 -0.9165167135 -0.5271161416 -0.0851018186 0.8455212911 -0.5456133347 0.6495186486 -0.5295579422 -0.8018184881 -0.4268891480 -0.4181539996 0.7227485772 -0.2927864983 0.6260276036 0.7377158585 -0.2980645712 0.6057498028 -0.9122922525 -0.0942638822 -0.3985438075 -0.9032991875 -0.0640792139 -0.4241985764 -0.4359818049 -0.2423985259 -0.8666964985 0.7328139922 -0.0670302617 0.6771193373 0.6727335850 -0.1753320543 0.7188102631 -0.7488256474 -0.5940809735 0.2938161784 0.6312121061 0.6922481438 0.3498053524 0.5469859424 0.4965736893 -0.6739591605 -0.7970449240 -0.3448509137 -0.4957794232 -0.2191060036 -0.0745335656 -0.9728500947 -0.6071686611 0.7912841488 0.0722191993 -0.1769105055 0.6155149227 0.7680130552 -0.5278839155 0.0731642892 -0.8461592985 0.0295377715 0.6631129572 0.7479363115 -0.5474830549 0.7092647250 0.4440786580 0.0803915873 -0.7189545122 -0.6903923537 0.1017710690 -0.6746561023 -0.7310826172 0.5770480111 0.1169437003 0.8082943547 -0.2119328831 -0.7091418387 0.6724598915 0.4753116419 -0.8171466307 -0.3261138252 0.4566867071 -0.8264893228 -0.3291696384 0.6214843035 0.7804214184 -0.0685541405 0.3780927213 0.7906529774 -0.4815742554 0.4059564860 -0.4833631904 0.7756025771 0.9539102603 -0.1376826347 0.2666434087 -0.3060163776 0.8880769373 -0.3430354647 -0.4768838240 0.3210577689 -0.8182320743 -0.4696891286 0.2991379849 -0.8306073612 -0.3320252149 0.7566352645 -0.5632604488 -0.4686117876 0.3311585414 -0.8189853558 0.1530539513 0.5021945635 0.8511022902 0.1042039819 -0.4290424571 -0.8972536431 0.3148452775 -0.9322891965 0.1780710684 -0.6936867751 0.4272337621 -0.5798878948 -0.6706495461 0.7141485194 -0.2005519347 0.3949670445 -0.6211818070 -0.6768561121 -0.3204979608 -0.1385184295 -0.9370665408 -0.1587719494 -0.1472222754 -0.9762771480 0.1168714820 -0.7730237229 0.6235185487 -0.5413296228 0.0003791143 -0.8408103804 -0.0734876168 0.6241055788 0.7778764662 -0.0153065189 0.8777451746 -0.4788831996 -0.5820281300 -0.7330511152 0.3519649392 0.4377198060 -0.4573868738 0.7740792072 0.4256770428 -0.3472525208 0.8355924497 0.0195946272 0.6181143357 -0.7858439531 0.0534081621 0.6490277753 -0.7588876828 0.0084653401 0.6957513571 -0.7182328224 -0.5717959105 -0.7485172221 -0.3358145395 0.0067960867 0.9322998506 0.3616224574 -0.3147156282 0.7124102962 0.6272365130 0.0459349864 0.6142024741 -0.7878104453 0.0981235774 0.6104860955 -0.7859252450 0.0459187696 0.6142033665 -0.7878106950 0.0459144975 0.6142036015 -0.7878107608 0.0459146543 0.6142035928 -0.7878107584 0.0458094540 0.6142093759 -0.7878123739 0.0458070202 0.6142095316 -0.7878123940 0.4192533276 -0.5767089124 0.7011657990 0.4200536641 -0.5699352226 0.7062073076 -0.3103498841 -0.8849403507 -0.3472225874 0.4289620509 -0.6027929656 -0.6727794583 0.0407403950 -0.2722378262 -0.9613671443 0.2125531785 0.0209093634 0.9769257622 0.2128607244 0.0204726350 0.9768680480 0.2129921652 0.0202863675 0.9768432837 0.2128163995 0.0205355785 0.9768763843 0.2134290200 0.0196653855 0.9767606288 0.2132477767 0.0199232131 0.9767949894 0.2133371742 0.0198080153 0.9767778113 0.2133634070 0.0200408110 0.9767673328 0.2129780490 0.0206600103 0.9768385305 -0.2694835813 -0.1989356889 -0.9422330875 0.2145502578 0.0210000065 0.9764871666 -0.1849618947 -0.1065551076 -0.9769519469 -0.1878650214 -0.0993181824 -0.9771604947 0.0691472096 -0.3059862107 -0.9495215123 0.9264959952 0.3226269404 0.1936931291 0.1144784869 0.4140074230 -0.9030462501 -0.2102973628 -0.0163414530 -0.9775008829 -0.2105674413 -0.0126461240 -0.9774975336 -0.2299562055 0.0177824545 -0.9730385028 -0.2108117211 -0.0116434605 -0.9774573382 -0.3061643479 0.5048703211 -0.8070745634 -0.5214527290 0.2219252304 -0.8239151919 -0.2040699881 0.7193853637 0.6639579342 -0.2221281903 0.7121713850 0.6659361722 0.4331737435 -0.6344686862 0.6401640370 0.6703989863 0.0972593299 -0.7355989545 0.7937478818 0.4842347493 0.3680774480 -0.7242106674 -0.6705059115 0.1610612675 -0.8833869677 0.4086034959 0.2295008681 -0.8848653185 0.4069211942 0.2267785480 -0.8814162036 0.4112607269 0.2323146369 0.4045036846 -0.4957103732 0.7685362679 0.4054095819 0.8712507329 -0.2767042308 -0.6729289381 -0.3914760845 -0.6276249832 -0.0323943307 0.6073198765 -0.7937966836 0.4007163622 -0.1350145801 0.9061994594 0.4007112516 -0.1349845276 0.9062061963 0.4792430025 -0.1850765193 0.8579468670 -0.1856312307 -0.4978876427 -0.8471416301 -0.4627186663 0.4538822335 -0.7615000683 -0.4627271660 0.4538930383 -0.7614884632 -0.1856992879 -0.4976831448 -0.8472468719 -0.4627346905 0.4539026031 -0.7614781895 0.0059231498 -0.9427127358 0.3335530154 0.4746742021 -0.1002233749 0.8744367770 -0.1859687012 -0.4973768993 -0.8473676075 -0.0235263665 -0.9584050678 0.2844402154 0.5471369167 -0.1068189220 0.8301993208 -0.1871241038 -0.4973404515 -0.8471346086 -0.1723928940 -0.8517970340 0.4946943530 -0.7933263490 0.5420412873 0.2771724134 0.3767846761 0.2092394720 0.9023592141 -0.8199218696 0.5385259188 -0.1942111287 -0.3774740499 -0.6712943979 -0.6378692444 -0.3018587306 -0.1600502992 -0.9398219025 -0.6598527948 0.4480796510 0.6031740342 -0.7209434852 0.5418802050 -0.4319795535 0.2271187937 -0.4941725515 -0.8391725347 -0.1645804600 0.0408854042 -0.9855159339 -0.2074186987 -0.0139593645 -0.9781526566 0.9045862538 0.1718671561 -0.3901094591 0.2838367148 0.0577304025 -0.9571331778 0.3790791870 0.9210255497 0.0895036686 -0.3822615606 -0.3004437767 0.8738476048 -0.3648209706 -0.2787593679 0.8883686590 -0.3555505047 -0.2893113485 0.8887534991 -0.3613136048 -0.2829873887 0.8884653155 -0.3539175169 -0.2922395943 0.8884471908 -0.3500920636 -0.2742794939 0.8956597045 0.0879729696 -0.4080991348 -0.9086890848 0.5696583161 -0.6733525344 -0.4712597664 -0.0235209199 0.3690366404 -0.9291171747 -0.7443019752 0.6122321428 0.2668077455 -0.1740601098 0.8102943549 0.5595767478 0.5325304135 0.7520272371 0.3884152332 -0.0557084658 0.7166994669 -0.6951535377 0.0355103139 0.9278768503 0.3711920907 0.0242572896 0.6674787406 -0.7442336426 -0.0006665866 0.6611048082 -0.7502932681 -0.5725963952 0.5681811354 -0.5910190908 -0.5599854923 0.6056830327 -0.5653001967 0.1085107327 -0.6313301087 0.7678852224 0.1089226238 -0.6218005203 0.7755642946 -0.7400179581 -0.6714684390 0.0387757296 0.3378053398 -0.6747066218 -0.6562457824 -0.5815247378 0.7533870557 -0.3069803309 -0.4574578908 0.4762627086 -0.7509368219 -0.5723116622 0.3892576797 -0.7217602234 -0.5517981617 0.8278187345 -0.1011678383 -0.5566214817 0.4855532285 -0.6740998357 0.0316375640 0.5753022626 -0.8173288023 -0.6463114678 0.3826651787 0.6601884940 -0.6472289639 0.3771843443 0.6624399133 0.7308941114 0.6586053901 0.1789769206 -0.8283392824 0.2603983148 0.4960309979 0.6397816836 -0.7060394967 0.3036241533 -0.2141627979 -0.2358010811 -0.9479093554 0.0962422327 -0.2755318703 -0.9564620333 0.3758235690 -0.6168750851 -0.6915358084 0.0575524350 -0.9830000711 -0.1743518783 0.2326977733 -0.1076682700 -0.9665708924 -0.3228976890 -0.8508103018 -0.4145586965 -0.4329157834 0.4990670327 -0.7506770420 -0.4306354476 0.4982709277 -0.7525152450 0.6503484102 -0.3449603518 0.6767933962 0.6810813893 -0.6373116583 -0.3605024152 0.8502965165 -0.1475742617 0.5051907277 -0.2747537852 -0.4216704261 -0.8641205988 0.5050064008 0.0300400671 0.8625926788 0.3540734757 -0.2543963509 -0.8999524823 -0.7299116752 -0.0022660346 -0.6835377177 -0.6338389235 0.2170773524 -0.7423783685 0.0195105237 -0.3816797728 0.9240886811 -0.0876561072 0.4682911676 -0.8792154396 -0.0650211725 0.3436585806 -0.9368409828 0.5001150375 -0.5127741351 0.6978163337 -0.6391273801 0.1761542323 -0.7486560481 -0.6475780792 0.1795958748 -0.7405322094 -0.5951775305 0.1584457152 -0.7878189275 0.3533127152 -0.6786798744 -0.6438662542 0.3573734299 -0.6777869510 -0.6425644564 0.3538783284 -0.6782435628 -0.6440153711 -0.2819991495 0.9479021230 -0.1481824716 -0.1849554191 0.4668410702 -0.8647837349 -0.1880903019 0.4524823489 -0.8717119721 0.0202237175 -0.6744414939 -0.7380512669 -0.7824046171 -0.4229626680 -0.4571056734 0.4817531324 0.3336756989 0.8102928158 0.0507812107 0.8538803504 -0.5179861154 -0.2184026620 -0.9747405725 0.0467021796 0.2269148985 0.7829245759 0.5792570563 -0.5788311940 -0.8150802551 0.0244668483 0.9230560279 -0.2185349384 0.3165597101 0.1327425318 -0.7185138908 0.6827277708 0.1329191426 -0.7184272767 0.6827845558 0.1390317236 -0.7154059668 0.6847367980 0.1329058002 -0.7184682272 0.6827440624 0.1389844700 -0.7155123390 0.6846352385 0.1388758732 -0.7155655535 0.6846016582 0.1789747762 -0.6948723705 0.6965058637 0.1392518635 -0.7165641368 0.6834798873 0.1785772032 -0.6945465647 0.6969327457 0.1787075820 -0.6944839700 0.6969617030 0.9825377670 0.1583309579 -0.0977284210 -0.4399637077 0.4031625597 -0.8024287422 0.1048663516 -0.7273855676 0.6781690677 0.1048619975 -0.7273679616 0.6781886242 0.1048331693 -0.7273623313 0.6781991194 0.1048797583 -0.7273714431 0.6781821438 0.1048657518 -0.7273686975 0.6781872544 -0.1352792364 0.8289306727 -0.5427462280 -0.2731071901 0.3956210027 -0.8768674272 0.6632701219 -0.4818908431 0.5725853305 0.9043558439 -0.4236051658 -0.0519535468 0.0376633787 -0.8591673089 0.5103067755 0.8025256285 -0.2900920125 -0.5213436869 0.7052228892 -0.4569314883 -0.5421017354 -0.3688873444 0.8709139984 -0.3247013005 -0.1850442767 -0.1524325801 0.9708361984 -0.0757581113 0.0987793487 -0.9922214213 -0.1386896397 -0.9888597534 -0.0540515679 -0.2259162173 -0.0348863114 -0.9735218580 0.3955272926 0.2807346256 0.8744977020 0.2495659111 0.7764125853 -0.5787057571 0.2719329867 0.7619410594 -0.5877910111 0.5820011597 0.2455167601 0.7752394279 -0.1827287126 -0.0969460156 -0.9783719577 -0.2531010361 -0.0700952341 -0.9648971571 -0.1890449603 -0.0910706279 -0.9777362342 -0.8894254712 0.4485825141 -0.0877271858 -0.7602438240 0.4341808933 -0.4832352222 -0.7814935627 0.4467076143 -0.4355687303 -0.5490875911 -0.6890248562 0.4730196242 -0.1205083096 0.5587281652 -0.8205489533 -0.1661007757 0.5464399686 -0.8208616772 0.0356138889 -0.2832633102 0.9583806905 0.0292954983 -0.3329117189 0.9425028176
        </DataArray>
        <DataArray type="Float32" Name="contact force" NumberOfComponents="3" format="ascii">