<?xml version="1.0"?>
<VTKFile type="UnstructuredGrid" version="0.1" byte_order="LittleEndian">
  <UnstructuredGrid>
    <FieldData>
      <DataArray type="Float32" Name="TIME"  NumberOfTuples="1" format="ascii"> 2.4500000000 </DataArray>
      <DataArray type="Int32"   Name="STEP"  NumberOfTuples="1" format="ascii"> 245000 </DataArray>
    </FieldData>
    <Piece NumberOfPoints="291" NumberOfCells="291">
      <Points>
        <DataArray type="Float32" NumberOfComponents="3" format="ascii">
 8.4887874997 0.1514476725 -10.2010068976 8.5026088206 0.1061946181 -10.3283356364 8.5221906282 0.0975561129 -10.3309084902 8.6157334726 0.1059932157 -10.3992594993 8.6524793172 0.3178428462 -10.2041950289 8.6611571340 0.3153900828 -10.2158553405 8.6548988379 0.4054166401 -10.2106097616 8.6934821410 0.1979177058 -10.4632446696 8.7001341762 0.2055938427 -10.4650137052 8.6804095756 0.4429789545 -10.3142549046 8.6820568690 0.4468944401 -10.3291609952 8.7074687208 0.2768363050 -10.5460957759 8.6064100460 0.4044987543 -10.4815339684 8.6126848881 0.4048998145 -10.4940992185 8.6270501129 0.4244660393 -10.5061405864 8.7846870753 0.4117302068 -10.4167105437 8.7924950924 0.4068247984 -10.4296915865 8.7783721579 0.4137226156 -10.5262260585 9.1639921957 0.2738805943 -10.2056344166 9.0823349593 0.3481867109 -10.2620645251 9.0829718764 0.3378436272 -10.2632723285 9.0806133517 0.3348737192 -10.2721585390 9.1321419403 0.5513914052 -10.3275118070 9.1257945766 0.5648603792 -10.3428308574 9.1264638689 0.5460848293 -10.3483852594 9.1221187085 0.3336708293 -10.4154233102 9.1196410367 0.3483200566 -10.4207460160 9.0507926883 0.5168127118 -10.4381900731 9.0498679499 0.4956428941 -10.4255405556 8.3730181846 0.6705705175 -9.9053633801 8.3602547616 0.7389874984 -9.7234122081 8.3622942775 0.7386729074 -9.7124534932 8.3694755157 0.5813394275 -9.8212560412 8.3944473939 0.6266160166 -9.6855538077 8.4009524870 0.6222002125 -9.6915393624 8.4888521544 0.6730261524 -9.7741633812 8.4930380871 0.6661916238 -9.7799401200 8.7052991288 0.6997142174 -10.1101598796 8.6990849276 0.7022076844 -10.1057647900 8.7017560535 0.7095188055 -10.1048552807 8.7624853895 0.7256799602 -10.1989809961 8.6588252881 0.7104797775 -10.2176554848 8.6612086388 0.7153034914 -10.2214077966 8.6551842313 0.7169840856 -10.2224518874 8.5452100220 0.7079266283 -10.1237251460 8.7450682536 0.8384022566 -10.2319201979 8.6198870681 0.7943315679 -10.1058076614 8.6131880168 0.7955873845 -10.1089495201 8.6207311171 0.8006329634 -10.1108590232 8.6143975246 0.8022355310 -10.1144289686 8.6083048076 0.8045419068 -10.1187168235 8.7052593644 0.3152057330 -9.7504153452 8.5119270465 0.4986888300 -9.7591115302 8.6569348356 0.3168551586 -9.8776493927 8.7563320020 0.4034533248 -9.8115115992 8.7603747194 0.4055122653 -9.8230546399 8.6090697756 0.3342566309 -9.9308748719 8.7378308718 0.3260418390 -9.8730300871 8.7641157300 0.4215547544 -9.8209025326 8.7674410790 0.4223218675 -9.8311156845 8.6216776069 0.3429756586 -9.9464080441 8.7704355962 0.4223131129 -9.8410708815 8.7759378110 0.4360694915 -9.8464581537 8.7893809760 0.7082930950 -9.8185463235 8.7966582110 0.7070252585 -9.8279268335 8.8027998474 0.7277188774 -9.8389736087 8.6707562653 0.8127100048 -9.9444286875 8.8909611980 0.6939068940 -10.0043942874 9.0341351621 0.3113234756 -10.2489373160 9.0358779719 0.3116287475 -10.2625815961 9.0007896426 0.1254212722 -10.1452000199 9.0238558943 0.1637861733 -10.2776760641 8.7044415263 0.0603426894 -10.3877920715 8.7054964203 0.0899848899 -10.1233285804 8.7989288461 0.2335260567 -10.3547228262 8.8760862912 0.3723572623 -10.3364137922 8.7625965873 0.2696014444 -10.1977332554 8.7574014843 0.1942914437 -10.1213473008 8.3719573189 0.3232481645 -9.9596400861 8.3706474672 0.3159667559 -9.9493030875 8.3959014410 0.3011941726 -9.8558660593 8.4039399168 0.3140028838 -9.8463114564 8.4040505707 0.3236245976 -9.8326809109 8.4107933153 0.3324199565 -9.8276332066 8.4101442514 0.3390742927 -9.8172791752 8.4162512923 0.3460693983 -9.8142216888 8.4153564241 0.3516102628 -9.8051166240 8.4201819935 0.3629439134 -9.7942819792 8.3547099878 0.4610475566 -9.8345457756 8.3541942075 0.4630171307 -9.8270807742 8.3576778259 0.4687524280 -9.8290645762 8.4481424784 0.4923450758 -9.7181648552 8.4407842145 0.5017684340 -9.7230776927 8.5418168574 0.1836322920 -9.9552245031 8.5393354017 0.1742496505 -9.9526758827 8.5459120246 0.1854377073 -9.9601545849 8.5354470887 0.1671459086 -9.9482779722 8.5503017635 0.2060811634 -9.9644479677 8.5438047389 0.1748033634 -9.9581165008 8.5297582565 0.1617939917 -9.9415875833 8.5495524874 0.1889413271 -9.9644350357 8.5405362871 0.1667434643 -9.9545158569 8.5477081284 0.1766858969 -9.9628292193 8.5358682003 0.1605133115 -9.9491172649 8.5528963776 0.1943360717 -9.9682518603 8.5292298239 0.1557038638 -9.9412454861 8.5560910828 0.2020865548 -9.9717553133 8.5355941256 0.1547886855 -9.9490493619 8.5593023173 0.2130732284 -9.9750821590 8.5279393757 0.1502952606 -9.9399295767 8.5259103163 0.1452935284 -9.9376882273 8.5643728909 0.2127940189 -9.9813318609 8.5230877813 0.1404829899 -9.9344672703 8.6412664460 0.2125388406 -9.9430586640 8.6476772021 0.2109686074 -9.9496753334 8.5123559979 0.0853520402 -9.8044969350 8.4655407056 0.0111106117 -9.8301489796 8.4759434412 -0.0088234971 -9.8474727280 8.6621818954 0.0335142908 -9.9664798046 8.6657870839 0.0445701219 -9.9700809306 9.0113423335 0.2058372794 -10.4385501537 9.1023757325 0.1228463990 -10.2866719561 8.7302784010 0.1298284837 -9.9169600579 8.8178174615 0.1443315417 -9.8907731818 8.7633922939 0.2496147201 -9.8990175061 8.9767096295 0.6799849531 -10.0480037719 8.8721636285 0.6125808878 -10.1916948798 8.9653783356 0.6767343025 -10.1972931095 8.9607361705 0.6800795840 -10.2013381096 8.9641296160 0.6863192239 -10.1994158821 8.9560680837 0.6838903607 -10.2052494602 8.8849613714 0.7441642057 -10.1758959692 8.6546061057 0.4673956159 -10.1704582870 8.7236112365 0.4800502109 -10.1941338684 8.7285469089 0.4985728148 -10.1873289276 8.7339380817 0.4939428527 -10.2006918028 8.5772257163 0.5266646513 -10.2747714549 8.5854248031 0.5430609080 -10.2889049385 8.7738789000 0.6460870975 -10.2704588822 8.7796796273 0.6506589393 -10.2785210182 8.8070667383 0.4886639187 -10.4004031011 8.8127466907 0.5001521752 -10.4033367412 8.7856692945 0.6554819204 -10.2869063456 8.8181911032 0.5113506597 -10.4063128503 8.7920981603 0.6608724933 -10.2960276851 8.6608982403 0.7430700389 -10.3381924890 8.6652687766 0.7444256891 -10.3497706787 8.7993380908 0.6673011908 -10.3064941960 8.7244910875 0.7744233788 -10.3412057836 8.6981162815 0.6634541074 -10.4745723791 8.8043967965 0.6011374804 -10.4882906449 8.7060755261 0.6792814589 -10.4876249342 8.8751109160 0.7082863057 -10.4280671344 8.8076176030 -0.0327805930 -9.9904998858 8.6610238786 0.0322393318 -9.8566105187 8.6809612248 -0.0725516575 -9.8412370041 8.4806259317 0.0293850833 -10.0884146688 8.4862426602 0.0294591101 -10.0907486399 8.4915621658 -0.0029661534 -10.1307626969 8.4712295586 0.0963943814 -10.1426507334 8.4742828900 0.0946048873 -10.1449211883 8.4773584244 0.0928396006 -10.1471330839 8.4777543777 0.0977864878 -10.1444486518 8.4809207435 0.0960440468 -10.1467035338 8.4848654285 0.0994210191 -10.1463518901 8.5208668940 0.1159272849 -10.0849933437 8.6975172336 0.3365324904 -10.1572088166 8.7046956600 0.3330290639 -10.1543889320 8.6574545707 0.6086803317 -10.5117781255 8.6512980382 0.6114864545 -10.5045060496 8.8282036264 0.0899178151 -10.4489868381 8.8197394598 0.0917202484 -10.3992712409 8.8290983018 0.0973440104 -10.4012537453 8.8241800631 0.0976180695 -10.3949870501 8.8890778940 0.1477794491 -10.4758477040 8.8967445015 0.1617371117 -10.4755437293 8.7536948843 0.2077888980 -10.4517166327 8.7579459762 0.2121688128 -10.4529759060 8.8673790061 0.0643083974 -9.9402111385 8.8655799199 0.0666760861 -9.9492514751 8.8742698669 0.0674042174 -9.9502233341 8.9250292774 0.1676562773 -9.9667796381 8.9139125172 0.1729495154 -9.9594889657 8.9225847048 0.1742032468 -9.9579170455 8.9713555100 0.6360432631 -10.4334879811 8.9531633396 0.4995897801 -10.4180306607 8.9514646741 0.4954173668 -10.4228007748 8.9494263636 0.4919441231 -10.4175978745 8.8994188483 0.4285918580 -10.4799607317 9.1179746029 0.0655365136 -10.3517328262 8.4269479306 0.7948018759 -9.9762572337 8.4230561646 0.7921307114 -9.9833495009 8.9029945106 0.6504744361 -10.2855695031 8.8356412266 0.5803676291 -10.2050897043 8.8302410501 0.5826766611 -10.1964571743 8.4889733879 0.7389437590 -9.6794325469 8.4968436001 0.7383518000 -9.6782931021 8.3904218451 0.1691784962 -10.0089089940 8.4371686419 0.1918909203 -10.1248774160 8.4042786092 0.3176230621 -10.0319081681 8.6210567284 0.0040378607 -9.7954771030 8.6184734739 0.0145012581 -9.7963549205 8.8301597949 0.0130639574 -10.2183154083 8.8581670081 0.0004484695 -10.2195563558 8.8246976831 0.0081674842 -10.2201722278 8.8610491896 -0.0085815170 -10.2170999234 8.9174860385 0.1693866028 -10.0511855179 8.9299201552 0.1090047052 -10.1048000513 8.9266972379 0.1039073360 -10.1001371133 8.8201858485 0.1020874465 -10.0766892207 8.6618913002 0.1143371599 -10.4947605222 8.6596573375 0.1097267440 -10.4995847134 8.8943944837 0.2456500866 -10.6155174695 8.4176766539 0.7954387092 -10.0424691866 8.4148699176 0.8050949392 -10.0392048044 8.4087478287 0.7980711726 -10.0338630396 8.5014358682 0.7886247975 -9.9410007095 8.8861205245 0.7023810367 -9.8903243142 8.9043190659 0.6926161631 -9.8159468376 8.9066224327 0.7231634640 -9.8185594793 8.9119821443 0.1895249764 -10.5992780030 8.5001765598 0.8032222389 -10.1002567554 8.4499109315 -0.0181335055 -10.2115984812 8.5074506705 0.7059761660 -9.9658986738 8.5414015402 0.8099443275 -9.9592472302 8.3946556998 -0.0366642781 -9.9999428536 8.3512586162 0.0810160776 -9.9222730082 8.3957687813 0.0260613196 -10.0246398304 8.6748624939 0.8988421469 -10.3887703370 8.6741940107 0.9016619858 -10.3817670874 8.8193806599 0.8966405461 -10.2572405047 8.9224737014 0.8886905699 -10.2386358305 8.9211036022 0.8670449014 -10.2396052160 8.9841191480 0.6575744494 -10.2546556829 8.9857673928 0.6620272478 -10.2571020131 8.9813714858 0.6642983376 -10.2582294035 8.9828702870 0.6695852932 -10.2611067820 8.9783260705 0.6726438403 -10.2626725580 8.9795229871 0.3990432420 -10.4270690517 8.6387133572 0.0530902082 -9.7934793982 8.8672419716 0.0536788790 -10.3456585124 8.8669525752 0.0494163948 -10.3532860743 8.8362060378 0.0573115183 -10.4271269577 8.9552384213 0.2165903211 -10.4698205628 8.9501168112 0.2187185388 -10.4610320048 8.9070105046 0.0703395219 -10.5305270432 8.9078759969 0.0622088650 -10.5252231230 8.9339307316 0.0519818672 -10.4917337295 8.9351456062 0.0534176043 -10.4817390113 8.7639267295 0.2760129119 -9.8202120142 8.4598178560 0.0799842960 -10.2038117966 8.5166811608 0.2526325168 -10.1571154828 8.7990995932 0.8715673519 -10.3736168283 8.7988582993 0.8799747125 -10.3717543572 8.7313099264 0.8930722059 -10.3256214923 8.7311228387 0.8946122791 -10.3208244023 8.7344105638 0.8979257021 -10.3204303624 8.7310074225 0.8962305208 -10.3159479629 8.7343053054 0.8996745848 -10.3153212830 8.7343860803 0.9017204441 -10.3098286459 8.9453231051 0.0077372741 -10.1722392262 8.9376566553 0.0105720909 -10.1686180497 8.8365909489 0.3722338164 -9.7652090991 8.8416701590 0.3805880938 -9.7713857982 8.7134145713 0.4550726577 -9.5904827470 8.5222705209 0.5059257567 -10.2626756844 8.5292763666 0.5000471600 -10.2687449146 8.6989285832 0.1614569656 -10.6515519928 8.7081532795 0.1716831661 -10.6447828329 8.7111944495 0.1761367948 -10.6395452620 8.7142631543 0.1798643036 -10.6363560494 8.7175680575 0.1831968111 -10.6348002815 8.7213420778 0.1863592922 -10.6347841268 8.8755170611 0.0281399231 -10.2799521803 8.8675991669 0.0243536377 -10.2707005770 8.8915635378 0.0374543708 -10.2948989323 8.4137124424 0.4025746842 -10.0687531665 8.3742117788 0.5079330377 -9.9004604118 8.3660846576 0.4949945468 -9.9017521180 8.4976577789 0.5571756912 -9.9687084918 8.4632687993 0.4407953897 -10.0690133467 8.7040580385 0.4472286735 -10.6462554913 8.5089069795 0.6422830820 -10.0152065382 8.5111936558 0.6393089017 -10.0177133369 8.5171131290 0.4379067398 -10.2122231638 8.8449404801 -0.0237397936 -10.0154919773 8.8520741336 -0.0555362437 -9.9585542601 8.5043371549 0.2349906874 -9.7615676522 8.9272245397 -0.0542450870 -10.1575669557 8.6073750168 0.8379282002 -10.0106944577 8.6015374922 0.8311559652 -10.0088848550
        </DataArray>
      </Points>
      <Cells>
        <DataArray type="Int32" Name="connectivity" format="ascii">
 0 1 2 3 4 5 6 7 8 9 10 11 12 13 14 15 16 17 18 19 20 21 22 23 24 25 26 27 28 29 30 31 32 33 34 35 36 37 38 39 40 41 42 43 44 45 46 47 48 49 50 51 52 53 54 55 56 57 58 59 60 61 62 63 64 65 66 67 68 69 70 71 72 73 74 75 76 77 78 79 80 81 82 83 84 85 86 87 88 89 90 91 92 93 94 95 96 97 98 99 100 101 102 103 104 105 106 107 108 109 110 111 112 113 114 115 116 117 118 119 120 121 122 123 124 125 126 127 128 129 130 131 132 133 134 135 136 137 138 139 140 141 142 143 144 145 146 147 148 149 150 151 152 153 154 155 156 157 158 159 160 161 162 163 164 165 166 167 168 169 170 171 172 173 174 175 176 177 178 179 180 181 182 183 184 185 186 187 188 189 190 191 192 193 194 195 196 197 198 199 200 201 202 203 204 205 206 207 208 209 210 211 212 213 214 215 216 217 218 219 220 221 222 223 224 225 226 227 228 229 230 231 232 233 234 235 236 237 238 239 240 241 242 243 244 245 246 247 248 249 250 251 252 253 254 255 256 257 258 259 260 261 262 263 264 265 266 267 268 269 270 271 272 273 274 275 276 277 278 279 280 281 282 283 284 285 286 287 288 289 290
        </DataArray>
        <DataArray type="Int32" Name="offsets" format="ascii">
 1 2 3 4 5 6 7 8 9 10 11 12 13 14 15 16 17 18 19 20 21 22 23 24 25 26 27 28 29 30 31 32 33 34 35 36 37 38 39 40 41 42 43 44 45 46 47 48 49 50 51 52 53 54 55 56 57 58 59 60 61 62 63 64 65 66 67 68 69 70 71 72 73 74 75 76 77 78 79 80 81 82 83 84 85 86 87 88 89 90 91 92 93 94 95 96 97 98 99 100 101 102 103 104 105 106 107 108 109 110 111 112 113 114 115 116 117 118 119 120 121 122 123 124 125 126 127 128 129 130 131 132 133 134 135 136 137 138 139 140 141 142 143 144 145 146 147 148 149 150 151 152 153 154 155 156 157 158 159 160 161 162 163 164 165 166 167 168 169 170 171 172 173 174 175 176 177 178 179 180 181 182 183 184 185 186 187 188 189 190 191 192 193 194 195 196 197 198 199 200 201 202 203 204 205 206 207 208 209 210 211 212 213 214 215 216 217 218 219 220 221 222 223 224 225 226 227 228 229 230 231 232 233 234 235 236 237 238 239 240 241 242 243 244 245 246 247 248 249 250 251 252 253 254 255 256 257 258 259 260 261 262 263 264 265 266 267 268 269 270 271 272 273 274 275 276 277 278 279 280 281 282 283 284 285 286 287 288 289 290 291
        </DataArray>
        <DataArray type="UInt8" Name="types" format="ascii">
 1 1 1 1 1 1 1 1 1 1 1 1 1 1 1 1 1 1 1 1 1 1 1 1 1 1 1 1 1 1 1 1 1 1 1 1 1 1 1 1 1 1 1 1 1 1 1 1 1 1 1 1 1 1 1 1 1 1 1 1 1 1 1 1 1 1 1 1 1 1 1 1 1 1 1 1 1 1 1 1 1 1 1 1 1 1 1 1 1 1 1 1 1 1 1 1 1 1 1 1 1 1 1 1 1 1 1 1 1 1 1 1 1 1 1 1 1 1 1 1 1 1 1 1 1 1 1 1 1 1 1 1 1 1 1 1 1 1 1 1 1 1 1 1 1 1 1 1 1 1 1 1 1 1 1 1 1 1 1 1 1 1 1 1 1 1 1 1 1 1 1 1 1 1 1 1 1 1 1 1 1 1 1 1 1 1 1 1 1 1 1 1 1 1 1 1 1 1 1 1 1 1 1 1 1 1 1 1 1 1 1 1 1 1 1 1 1 1 1 1 1 1 1 1 1 1 1 1 1 1 1 1 1 1 1 1 1 1 1 1 1 1 1 1 1 1 1 1 1 1 1 1 1 1 1 1 1 1 1 1 1 1 1 1 1 1 1 1 1 1 1 1 1 1 1 1 1 1 1 1 1 1 1 1 1 1 1 1 1 1 1
        </DataArray>
      </Cells>
      <PointData Scalars="overlap">
        <DataArray type="Float32" Name="overlap" format="ascii">
 0.0001701316 0.0000834558 0.0001692625 0.0000248429 0.0000878621 0.0000555480 0.0001344105 0.0000444081 0.0002374962 0.0003618498 0.0000506407 0.0000269642 0.0000347012 0.0000160516 0.0003272610 0.0000152015 0.0002413817 0.0001054253 0.0003729122 0.0000060994 0.0004169310 0.0002530586 0.0000290993 0.0000060413 0.0005609709 0.0003613958 0.0003196712 0.0000831446 0.0004295144 0.0001763468 0.0001251074 0.0001734251 0.0003960342 0.0001120092 0.0001038463 0.0001410104 0.0000328189 0.0001292209 0.0001317607 0.0001299847 0.0002973891 0.0002901435 0.0005791251 0.0000834206 0.0001341259 0.0002093919 0.0000898438 0.0001498026 0.0001732824 0.0003528979 0.0001451099 0.0000367135 0.0000290271 0.0000677518 0.0000724789 0.0000478655 0.0000345512 0.0001266195 0.0000798774 0.0001553063 0.0005246542 0.0000051079 0.0000235896 0.0000733331 0.0001658409 0.0001599146 0.0001424304 0.0000981431 0.0000867665 0.0001947717 0.0000984343 0.0000261037 0.0001944031 0.0000865279 0.0002703493 0.0001239274 0.0001425889 0.0002823967 0.0000967199 0.0000975158 0.0000405911 0.0000387900 0.0000573867 0.0000733553 0.0000601699 0.0000386926 0.0000428155 0.0000022626 0.0000023228 0.0001117747 0.0000749068 0.0001234542 0.0001177703 0.0001126116 0.0001102422 0.0001301511 0.0000961439 0.0000043209 0.0001026621 0.0000795808 0.0001376099 0.0000721290 0.0000402852 0.0000637606 0.0001448261 0.0000683281 0.0001479477 0.0000142700 0.0001193247 0.0000456967 0.0000221985 0.0001320873 0.0000012050 0.0000455957 0.0000000435 0.0000857273 0.0001508728 0.0000221441 0.0000547330 0.0000238560 0.0000272491 0.0001867932 0.0000526788 0.0000738608 0.0000550285 0.0002649893 0.0000913066 0.0001303361 0.0002593024 0.0001338823 0.0000222618 0.0001995417 0.0001759410 0.0001509782 0.0000995061 0.0001071569 0.0000682520 0.0000700231 0.0000019079 0.0000238140 0.0000728593 0.0002048677 0.0000424276 0.0001453851 0.0000609924 0.0006875576 0.0003227577 0.0000718077 0.0000666948 0.0000283069 0.0001320975 0.0003383875 0.0001854370 0.0000468085 0.0000650922 0.0000291313 0.0001571184 0.0000782972 0.0000637585 0.0000271804 0.0000403309 0.0000277698 0.0000407906 0.0000659521 0.0000161449 0.0000622572 0.0000334433 0.0000985253 0.0000978044 0.0000576566 0.0000867830 0.0000233274 0.0000291498 0.0000850898 0.0000355516 0.0000007969 0.0002545987 0.0000807607 0.0000583530 0.0001105893 0.0000950791 0.0000357599 0.0000305302 0.0000022390 0.0000745627 0.0001429000 0.0000738206 0.0001104138 0.0004252226 0.0000583264 0.0005651616 0.0000744436 0.0000199631 0.0000595416 0.0000263864 0.0000106743 0.0000289307 0.0001407213 0.0001105370 0.0000533810 0.0000874676 0.0001100332 0.0000255400 0.0000028066 0.0000220444 0.0000776255 0.0000198143 0.0001050398 0.0000553751 0.0000226318 0.0000397256 0.0000154623 0.0000081997 0.0001388999 0.0002516090 0.0000634186 0.0001864154 0.0000566071 0.0000949186 0.0002617325 0.0000918766 0.0004287801 0.0000027238 0.0001322249 0.0001003822 0.0000085652 0.0000696945 0.0000555150 0.0000998686 0.0000671724 0.0001774159 0.0000155278 0.0000463663 0.0000020594 0.0000067395 0.0000341945 0.0000456851 0.0000336869 0.0000313751 0.0001113183 0.0001317721 0.0000755540 0.0000084208 0.0000350415 0.0000043414 0.0000335472 0.0000223109 0.0000639836 0.0000447690 0.0000571502 0.0000180501 0.0000237834 0.0000340740 0.0000370464 0.0000278537 0.0000440661 0.0000117679 0.0000278237 0.0000429164 0.0000410020 0.0000127827 0.0000735585 0.0001254988 0.0000449611 0.0001369575 0.0000629579 0.0000777246 0.0000170300 0.0000587631 0.0000243853 0.0000060757 0.0000080291 0.0000248706 0.0000464202 0.0000167806 0.0000837074 0.0000316069 0.0000674540 0.0000412575 0.0000593631 0.0000024823 0.0000220123 0.0000420224 0.0000477957 0.0000218233 0.0000316101 0.0000071208 0.0000302219 0.0001478715 0.0000253519 0.0000978408
        </DataArray>
        <DataArray type="Float32" Name="contact normal" NumberOfComponents="3" format="ascii">