<?xml version="1.0"?>
<VTKFile type="UnstructuredGrid" version="0.1" byte_order="LittleEndian">
  <UnstructuredGrid>
    <FieldData>
      <DataArray type="Float32" Name="TIME"  NumberOfTuples="1" format="ascii"> 1.6500000000 </DataArray>
      <DataArray type="Int32"   Name="STEP"  NumberOfTuples="1" format="ascii"> 165000 </DataArray>
    </FieldData>
    <Piece NumberOfPoints="303" NumberOfCells="303">
      <Points>
        <DataArray type="Float32" NumberOfComponents="3" format="ascii">
 4.2104920751 0.1723740144 -4.0911382133 4.3262247080 0.0988922488 -4.0809989465 4.3315034976 0.1118825253 -4.0646324698 4.2771446447 0.0989325170 -4.1961743198 4.2890570564 0.0940483097 -4.2005155876 4.3875107638 0.0920821076 -4.2315223396 4.3827290846 0.3270604205 -4.0611142956 4.3943087262 0.3224866616 -4.0690057390 4.3956707049 0.4125511234 -4.0765968760 4.4899660058 0.1694073006 -4.2774800692 4.4975637980 0.1763642806 -4.2779074092 4.4556545525 0.4335141490 -4.1702284538 4.5366973510 0.2348217712 -4.3600993088 4.4337519974 0.3758908383 -4.3466962750 4.4436189471 0.3741470021 -4.3565462704 4.4628704785 0.3909578959 -4.3655475988 4.5938589348 0.3749969410 -4.2385899948 4.6111169451 0.3688972568 -4.3346798685 4.8625739080 0.2543684544 -3.8932181244 4.8099821392 0.3140407446 -3.9808747826 4.8102258093 0.3099742535 -3.9896316272 4.8973698014 0.5131454738 -4.0504331382 4.8982716736 0.5053225383 -4.0712311040 4.8938275251 0.2860861419 -4.1108741296 4.8945873515 0.2999354730 -4.1183735990 4.8514973284 0.4678850583 -4.1764890549 4.8446099869 0.4488098219 -4.1624226291 4.0466043895 0.7420002401 -3.9067785461 4.0566826698 0.7436006284 -3.9048648928 4.0603044029 0.7347061886 -3.9110558832 3.9850377025 0.8278542175 -3.7377862961 4.0220877058 0.6581966392 -3.8229127180 4.0079498575 0.7204781954 -3.6924400290 4.0155321667 0.7149198853 -3.6954806597 4.4342412534 0.7183555607 -3.9983187197 4.5254411440 0.7246090593 -4.0683701681 4.4317318954 0.7126766245 -4.1173967539 4.4356136910 0.7167816868 -4.1207174405 4.4304111987 0.7186244828 -4.1238336976 4.2949068334 0.7300075202 -4.0652340927 4.5302685529 0.8322875549 -4.1183060522 4.3684401877 0.8137773620 -4.0347022759 4.3632027435 0.8149458128 -4.0399492039 4.3714269061 0.8192330639 -4.0399243329 4.3667012203 0.8206616200 -4.0454973543 4.3624956209 0.8226695449 -4.0517505824 4.2108387106 0.3944762625 -3.7031722562 4.2910848325 0.3861250214 -3.6169046047 4.1292159876 0.5770250519 -3.7086514384 4.1066173763 0.5982953355 -3.6533256764 4.3670895081 0.4617292093 -3.6682113776 4.3747031640 0.4618928129 -3.6780002236 4.3791655871 0.4778353831 -3.6766462087 4.3855589558 0.4769535330 -3.6852652023 4.2757453199 0.3902854473 -3.8312588487 4.2335984999 0.6705524152 -3.5651823474 4.2324393776 0.7125371356 -3.7775570245 4.4533176657 0.4624729102 -3.8084189025 4.4610285026 0.4738253278 -3.8088099729 4.2976845581 0.7997115987 -3.6648874943 4.4403001314 0.7571284274 -3.7061896490 4.4515630272 0.7756541420 -3.7170320577 4.3679309149 0.8520124048 -3.8685518658 4.7566629133 0.2926571314 -3.9800195402 4.7625720746 0.2908648767 -3.9923151744 4.7529487674 0.1509760326 -4.0137711917 4.7412290516 0.1432846418 -3.9923669429 4.4443595263 0.0381474938 -4.1873881560 4.5592755611 0.2139278232 -4.1455751419 4.6402715027 0.3494376258 -4.1199464785 4.6509379124 0.3571347230 -4.1178576109 4.4857037778 0.2757807235 -4.0229694928 4.4798357453 0.2740578819 -4.0138436345 4.5515465052 0.1744663909 -3.9055403036 4.4437317057 0.2108061738 -3.9348508141 4.0420658757 0.3829928272 -3.9217524154 4.0369105751 0.3773369234 -3.9116184497 4.0303794955 0.3746111220 -3.8139287868 4.0331113579 0.3996214010 -3.7921548189 4.0387919527 0.4086474573 -3.7862761905 4.0356239967 0.4167391168 -3.7775360004 4.0411444370 0.4237361757 -3.7735183825 4.0380198302 0.4305652324 -3.7659022731 4.0403431036 0.4430356622 -3.7554994665 4.0371796394 0.4499744655 -3.7477861701 3.9979809848 0.5409918704 -3.8191770970 4.0024592727 0.5461780388 -3.8205952308 4.0559791225 0.5801993726 -3.6901170743 4.0514519874 0.5892052385 -3.6981803480 4.1265349544 0.3144216882 -3.7470412085 4.1873135084 0.2362096894 -3.8466417918 4.1832456833 0.2274449743 -3.8439363438 4.1928913251 0.2370549206 -3.8501785520 4.1775016257 0.2212767001 -3.8402105461 4.1892109410 0.2269590919 -3.8476861540 4.1980068942 0.2396969458 -3.8534497869 4.2028864715 0.2442907608 -3.8566024694 4.2077620967 0.2512655472 -3.8597853589 4.2129202706 0.2614622670 -3.8631776469 4.0721971842 0.2362986765 -3.7033532644 4.2196219085 0.2600033526 -3.8673974365 4.2805039907 0.2608720441 -3.8068036886 4.1031441006 0.1623746453 -3.7027054737 4.0593722981 0.0879646977 -3.7330425627 4.0726601235 0.0652358688 -3.7436536576 4.1502493902 -0.0172582737 -3.7352978381 4.2775855215 0.0596592065 -3.7933674092 4.2897671490 0.0794431083 -3.8010385723 4.2953897103 0.0896467521 -3.8045702321 4.3021146554 0.0947243575 -3.8089021478 4.7829751040 0.1620359231 -4.1534231381 4.7377443970 0.0827427666 -4.1615652603 4.8143875552 0.0970062603 -3.9716419960 4.3434555651 0.1767420108 -3.7435623657 4.2947442518 0.2592336164 -3.7433838489 4.6681946960 0.6749838821 -3.8581389238 4.6158226602 0.6075872034 -4.0136435663 4.7119193475 0.6650400826 -3.9960837487 4.7091318880 0.6680355121 -4.0017720305 4.7123585080 0.6742799843 -3.9995997655 4.6358559980 0.7391486066 -4.0098636337 4.3894209618 0.4794288767 -4.0460165971 4.4631861467 0.4846676711 -4.0477092792 4.4675968372 0.5037487764 -4.0419182290 4.4763999161 0.4969431415 -4.0521837442 4.3589045404 0.5429583349 -4.1779205986 4.3621932883 0.5571555030 -4.1778895163 4.3639276227 0.5704514224 -4.1761147326 4.3708226334 0.5554284310 -4.1883057404 4.3726161293 0.5686008348 -4.1864607472 4.3730723382 0.5811842754 -4.1831989199 4.3805554548 0.5785137438 -4.1926650315 4.3802065243 0.5906643959 -4.1883035475 4.5422287252 0.6320845331 -4.1165362560 4.5506797311 0.6351399177 -4.1227990002 4.5591127275 0.6381924719 -4.1290531948 4.6068445787 0.4592953606 -4.2159509530 4.6142570936 0.4699116490 -4.2182314709 4.5678491954 0.6414368982 -4.1355799981 4.6214313604 0.4802486680 -4.2205933924 4.4667283851 0.7289146397 -4.2244411679 4.5772847917 0.6451135169 -4.1427242237 4.4742710869 0.7278416092 -4.2340233621 4.5880061664 0.6495803560 -4.1509942435 4.5384508082 0.7547155382 -4.2201265820 4.6344123709 0.5510951400 -4.3176628058 4.5439399192 0.6275579698 -4.3409583918 4.6425939944 0.5580957818 -4.3125496047 4.5570422239 0.6408953626 -4.3525563969 4.7013352821 0.6685854040 -4.2458530311 4.2040075548 0.7035705294 -4.0961966043 4.1980694340 0.7125960257 -4.0972995300 4.2062475986 0.7135455548 -4.1010199904 4.2005116932 0.7236394507 -4.1028438244 4.2137726735 0.7142644143 -4.1047265537 4.2089089568 0.7242919858 -4.1066679921 4.2921614783 0.6084489200 -4.1987273347 4.2207658450 0.7152491016 -4.1081510569 4.2929431608 0.6160566028 -4.1919875491 4.2168061465 0.7250697097 -4.1103028744 4.2970479180 0.6197346294 -4.2009469406 4.2978071802 0.6267527827 -4.1947228105 4.2985655171 0.6332995250 -4.1892799850 4.3029446646 0.6388101489 -4.1979708495 4.4315086856 0.0991500116 -3.8310272599 4.4283216563 0.0020376314 -3.7696463363 4.2548854500 0.0938887355 -3.6980895417 4.3365098777 0.0384287154 -3.6887641386 4.3291612733 0.0413658753 -3.6841948281 4.2585423924 -0.0085953820 -3.6649838713 4.2496083081 -0.0005353188 -3.6740484728 4.9246176291 0.4117106931 -4.0601524843 4.0864553885 0.0968266674 -3.9776495572 4.1500090957 0.0370163229 -4.0109310464 4.1769396881 0.1278535922 -4.0352612988 4.1804618687 0.1256309992 -4.0361552444 4.1844143948 0.1288037007 -4.0349722882 4.2011811304 0.1524091225 -3.9678953024 4.2099801286 0.1579640154 -3.9695927796 4.0053008569 0.8506640887 -3.6579587431 4.3018080226 0.4421547292 -4.0164772571 4.2986596637 0.4321745972 -4.0145209006 4.4179932793 0.3498355535 -4.0032233074 4.5115251248 0.5705161847 -4.3825782327 4.5037423029 0.5746379698 -4.3779843088 4.6022395198 0.0570640347 -4.2082474389 4.5789833779 0.0663807999 -4.1644328053 4.5890020687 0.0711276589 -4.1639493401 4.5824338432 0.0725655264 -4.1596684027 4.6738509424 0.1069990437 -4.2206907456 4.6823831792 0.1204015551 -4.2195693608 4.5442827625 0.1774244720 -4.2484300274 4.5491249799 0.1813339729 -4.2487605176 4.4816749518 0.1033589587 -3.7218408258 4.5398285558 0.2048569918 -3.7289908423 4.7868447223 0.5908241786 -4.2114111523 4.7525626453 0.5839618585 -4.1210219489 4.7556321938 0.4622243795 -4.1915741560 4.7513174199 0.4591979653 -4.1868370270 4.7507680717 0.4544992072 -4.1913942639 4.7468807618 0.4519166316 -4.1867514586 4.7008362323 0.3693568663 -4.2533741763 4.8437529111 0.0302178075 -4.0209603648 4.1430722874 0.8355671573 -3.9834335961 4.6777495027 0.6300988824 -4.0960524241 4.5821939646 0.5759911469 -4.0338371402 4.5746261841 0.5798153488 -4.0277453696 4.1070792462 0.8268596959 -3.6693384350 4.1141068654 0.8259876915 -3.6656721098 4.0595039266 0.2227276814 -3.9442366641 4.1411282199 0.2259320972 -4.0415773660 4.0940513275 0.3652832145 -3.9791790455 4.1939906087 0.0867101605 -3.6533080173 4.2290542819 0.1268697587 -3.6735288188 4.4962996368 -0.0221473353 -3.8403643432 4.4643864714 -0.0000272770 -3.9429975297 4.5519595447 -0.0005251236 -3.9668576237 4.5176640584 -0.0009216147 -3.9944776771 4.3184243074 0.8262407663 -3.5899106998 4.1807499944 0.8638402753 -3.7117418691 4.5911919330 0.1203094160 -3.8489984260 4.5935454855 0.1190650858 -3.8542744978 4.4803771064 0.1224263166 -3.8623183876 4.7108900415 0.1576782241 -4.3309271597 4.7120908884 0.3124192658 -4.3420621499 4.1528202495 0.8194548139 -4.0386887542 4.1444005654 0.8273059080 -4.0354582944 4.2717777083 0.7800964597 -4.1198809232 4.2281297297 0.9021798152 -4.1166003235 4.5442759916 0.7384617994 -3.7360724499 4.5374596767 0.7383884766 -3.6591523144 4.5947258123 0.0869333892 -4.4131384018 4.1269788215 0.0217692470 -3.9362191650 4.0656515636 0.0021206476 -3.9690121810 4.0580834373 0.0019725845 -3.9725971225 4.2577153420 0.7098284501 -3.5390275168 4.3594707606 0.7789340898 -3.5861311829 4.2100381914 0.7526047716 -3.9292091922 4.2693642332 0.8766151407 -3.8953836716 4.2782337846 0.8780583178 -3.9073449088 4.2504565926 0.8543337381 -3.9240956796 3.9870356281 0.1501513355 -3.8649740677 4.0554322516 0.0787920779 -3.9405472557 4.6142174291 0.8820355599 -4.1251187015 4.7051569009 0.8709693694 -4.0736322576 4.6063825085 0.8847055834 -4.1162924693 4.7020119821 0.8495201393 -4.0724534371 4.3105343838 0.1615122757 -3.5931005033 4.7455517587 0.6368089197 -4.0418805076 4.7447208524 0.6431062737 -4.0468990068 4.7475495687 0.6478399492 -4.0497394587 4.7440370904 0.6509004243 -4.0530183790 4.7691032674 0.3570571009 -4.1752236090 4.6035350715 0.0336787421 -4.0943734148 4.6052054049 0.0284003338 -4.1011395601 4.7000649613 0.0215994622 -4.2573277043 4.6984367871 0.0142691856 -4.2511147230 4.7117257075 0.0074504978 -4.2100804557 4.7099192250 0.0102441919 -4.2004740152 4.1768942438 0.1029775787 -4.0946949636 4.2332154303 0.2770390365 -4.0527757973 4.6285997519 0.8418685033 -4.2381668688 4.6286093501 0.8504538941 -4.2374743493 4.5502620997 0.8760550799 -4.2129177202 4.6107485899 0.0097715430 -3.8947736992 4.0989043621 0.0679749771 -3.9138320767 4.4257726165 0.4327043781 -3.5956679822 4.2635828945 0.5463092183 -3.4807358833 4.5498701642 0.1062251271 -4.4484390510 4.5512017798 0.1140412195 -4.4389562778 4.5575032797 0.1167783536 -4.4403237773 4.5591956201 0.1217546053 -4.4349489802 4.5614766826 0.1257203884 -4.4314061669 4.5644479058 0.1290502897 -4.4292773300 4.5683226014 0.1319669742 -4.4284261496 4.5884452672 0.0173250309 -4.0269832417 4.5777082250 0.0153574322 -4.0203903614 4.6091862959 0.0234682774 -4.0369679094 4.4986615517 0.0299068583 -3.9953491373 4.6117447695 0.2840380568 -4.4086579017 4.9922551998 0.3105485581 -3.9922362799 4.0441452988 0.5738355650 -3.8870092359 4.0355793207 0.5613305950 -3.8893185262 4.1869192379 0.6058217206 -3.9172652058 4.1740552509 0.4785380139 -4.0090341507 4.2204942485 0.6826297120 -3.9673547237 4.2231403145 0.6792047382 -3.9686283975 4.2690786923 0.4523540736 -4.1260599538 4.2560898325 0.4532013035 -4.1231706876 4.2680705036 0.3873190205 -3.5731850615 4.1846537971 0.2623624880 -3.6300494720 4.1905258157 0.2534156907 -3.6328594467 4.0383611869 0.0122195548 -3.8459803450 4.3937667305 0.7459027069 -3.6268478223 4.4723573970 0.0053965588 -3.7820882387 4.4563990694 -0.0203234264 -3.7171360999 4.4563908540 -0.0192265272 -3.7132704732 4.0881648386 0.3728552564 -3.7284250056 4.0818070189 0.3700454669 -3.7260363358 4.7665209370 0.8558358266 -4.0292546243 4.5911402234 -0.0495211368 -3.8856489565 4.3315176804 0.8709433760 -3.9544536500 4.3247662593 0.8648407139 -3.9538330742
        </DataArray>
      </Points>
      <Cells>
        <DataArray type="Int32" Name="connectivity" format="ascii">
 0 1 2 3 4 5 6 7 8 9 10 11 12 13 14 15 16 17 18 19 20 21 22 23 24 25 26 27 28 29 30 31 32 33 34 35 36 37 38 39 40 41 42 43 44 45 46 47 48 49 50 51 52 53 54 55 56 57 58 59 60 61 62 63 64 65 66 67 68 69 70 71 72 73 74 75 76 77 78 79 80 81 82 83 84 85 86 87 88 89 90 91 92 93 94 95 96 97 98 99 100 101 102 103 104 105 106 107 108 109 110 111 112 113 114 115 116 117 118 119 120 121 122 123 124 125 126 127 128 129 130 131 132 133 134 135 136 137 138 139 140 141 142 143 144 145 146 147 148 149 150 151 152 153 154 155 156 157 158 159 160 161 162 163 164 165 166 167 168 169 170 171 172 173 174 175 176 177 178 179 180 181 182 183 184 185 186 187 188 189 190 191 192 193 194 195 196 197 198 199 200 201 202 203 204 205 206 207 208 209 210 211 212 213 214 215 216 217 218 219 220 221 222 223 224 225 226 227 228 229 230 231 232 233 234 235 236 237 238 239 240 241 242 243 244 245 246 247 248 249 250 251 252 253 254 255 256 257 258 259 260 261 262 263 264 265 266 267 268 269 270 271 272 273 274 275 276 277 278 279 280 281 282 283 284 285 286 287 288 289 290 291 292 293 294 295 296 297 298 299 300 301 302
        </DataArray>
        <DataArray type="Int32" Name="offsets" format="ascii">
 1 2 3 4 5 6 7 8 9 10 11 12 13 14 15 16 17 18 19 20 21 22 23 24 25 26 27 28 29 30 31 32 33 34 35 36 37 38 39 40 41 42 43 44 45 46 47 48 49 50 51 52 53 54 55 56 57 58 59 60 61 62 63 64 65 66 67 68 69 70 71 72 73 74 75 76 77 78 79 80 81 82 83 84 85 86 87 88 89 90 91 92 93 94 95 96 97 98 99 100 101 102 103 104 105 106 107 108 109 110 111 112 113 114 115 116 117 118 119 120 121 122 123 124 125 126 127 128 129 130 131 132 133 134 135 136 137 138 139 140 141 142 143 144 145 146 147 148 149 150 151 152 153 154 155 156 157 158 159 160 161 162 163 164 165 166 167 168 169 170 171 172 173 174 175 176 177 178 179 180 181 182 183 184 185 186 187 188 189 190 191 192 193 194 195 196 197 198 199 200 201 202 203 204 205 206 207 208 209 210 211 212 213 214 215 216 217 218 219 220 221 222 223 224 225 226 227 228 229 230 231 232 233 234 235 236 237 238 239 240 241 242 243 244 245 246 247 248 249 250 251 252 253 254 255 256 257 258 259 260 261 262 263 264 265 266 267 268 269 270 271 272 273 274 275 276 277 278 279 280 281 282 283 284 285 286 287 288 289 290 291 292 293 294 295 296 297 298 299 300 301 302 303
        </DataArray>
        <DataArray type="UInt8" Name="types" format="ascii">
 1 1 1 1 1 1 1 1 1 1 1 1 1 1 1 1 1 1 1 1 1 1 1 1 1 1 1 1 1 1 1 1 1 1 1 1 1 1 1 1 1 1 1 1 1 1 1 1 1 1 1 1 1 1 1 1 1 1 1 1 1 1 1 1 1 1 1 1 1 1 1 1 1 1 1 1 1 1 1 1 1 1 1 1 1 1 1 1 1 1 1 1 1 1 1 1 1 1 1 1 1 1 1 1 1 1 1 1 1 1 1 1 1 1 1 1 1 1 1 1 1 1 1 1 1 1 1 1 1 1 1 1 1 1 1 1 1 1 1 1 1 1 1 1 1 1 1 1 1 1 1 1 1 1 1 1 1 1 1 1 1 1 1 1 1 1 1 1 1 1 1 1 1 1 1 1 1 1 1 1 1 1 1 1 1 1 1 1 1 1 1 1 1 1 1 1 1 1 1 1 1 1 1 1 1 1 1 1 1 1 1 1 1 1 1 1 1 1 1 1 1 1 1 1 1 1 1 1 1 1 1 1 1 1 1 1 1 1 1 1 1 1 1 1 1 1 1 1 1 1 1 1 1 1 1 1 1 1 1 1 1 1 1 1 1 1 1 1 1 1 1 1 1 1 1 1 1 1 1 1 1 1 1 1 1 1 1 1 1 1 1 1 1 1 1 1 1 1 1 1 1 1 1
        </DataArray>
      </Cells>
      <PointData Scalars="overlap">
        <DataArray type="Float32" Name="overlap" format="ascii">
 0.0001335874 0.0003368283 0.0000626534 0.0006138206 0.0004575296 0.0000549081 0.0000884635 0.0000521728 0.0001414254 0.0000539813 0.0002474958 0.0003205687 0.0000130663 0.0000541361 0.0000272598 0.0003328058 0.0002184853 0.0000941070 0.0000837013 0.0003477106 0.0002106273 0.0002897253 0.0001610254 0.0002867448 0.0002266891 0.0001281779 0.0004711018 0.0000353202 0.0000967543 0.0000422894 0.0002037537 0.0001798515 0.0000843670 0.0000812153 0.0001050097 0.0002498809 0.0002076647 0.0005360530 0.0000282767 0.0001935626 0.0000821810 0.0001141835 0.0001602664 0.0001939197 0.0003599900 0.0001375172 0.0000009889 0.0000777017 0.0002265087 0.0000164386 0.0000273709 0.0000062770 0.0000054027 0.0000873627 0.0003246017 0.0001041715 0.0000552576 0.0001236137 0.0000258693 0.0000055947 0.0000133040 0.0000513279 0.0002265728 0.0000312045 0.0000963581 0.0000021191 0.0000095300 0.0000391813 0.0001784552 0.0000640912 0.0000853710 0.0000025098 0.0001821763 0.0000753363 0.0001176190 0.0000660899 0.0000379566 0.0000034908 0.0000397041 0.0000472938 0.0000527603 0.0000142061 0.0000419456 0.0000064872 0.0000071264 0.0001070630 0.0000795628 0.0000351410 0.0000510734 0.0000217187 0.0000477057 0.0000342091 0.0000718680 0.0000092213 0.0000325789 0.0000869117 0.0001029840 0.0001167594 0.0001013399 0.0000510930 0.0001208192 0.0000393414 0.0000524026 0.0000235986 0.0000564859 0.0000227818 0.0000080770 0.0000930832 0.0000475623 0.0000194908 0.0000078384 0.0000203462 0.0000810343 0.0000208094 0.0000210566 0.0001860539 0.0000570013 0.0000525348 0.0001912787 0.0000239623 0.0002926467 0.0002110732 0.0003159259 0.0002546068 0.0001658551 0.0002192042 0.0005604316 0.0003782273 0.0000954106 0.0005672758 0.0004646983 0.0000896392 0.0002288559 0.0000280391 0.0000471629 0.0000567237 0.0002223543 0.0003358292 0.0000625023 0.0002582094 0.0001671839 0.0000670350 0.0003509474 0.0000614925 0.0000200265 0.0000177787 0.0000258568 0.0001635461 0.0002806634 0.0001728071 0.0002594230 0.0002446904 0.0001511380 0.0000895910 0.0004139611 0.0003771944 0.0001535353 0.0000710142 0.0003587058 0.0001824376 0.0002857790 0.0006011095 0.0001839495 0.0002155619 0.0000266156 0.0000645163 0.0000970851 0.0000006436 0.0000128818 0.0000734793 0.0000048129 0.0000226987 0.0000066878 0.0000373941 0.0000036615 0.0000205998 0.0000112607 0.0000079477 0.0000088247 0.0000232312 0.0000235364 0.0000108811 0.0000222593 0.0001159054 0.0000736870 0.0000566278 0.0000187500 0.0000283385 0.0000843246 0.0000323517 0.0000001372 0.0002159149 0.0000391947 0.0001985172 0.0000040655 0.0000473135 0.0000232525 0.0000197494 0.0001656773 0.0001312817 0.0001610447 0.0000988776 0.0000046260 0.0000372035 0.0000594461 0.0000201034 0.0000373571 0.0000508689 0.0000567421 0.0002113593 0.0000928345 0.0001321587 0.0000030582 0.0000367978 0.0000024441 0.0000215334 0.0000097333 0.0000055240 0.0000069250 0.0000106735 0.0000620474 0.0000506778 0.0000394980 0.0000129491 0.0000219139 0.0001011673 0.0000840184 0.0000886700 0.0000209604 0.0000439622 0.0000413443 0.0000106938 0.0001083276 0.0001756588 0.0000049516 0.0000071206 0.0000368422 0.0000957427 0.0000519009 0.0000426237 0.0001280442 0.0000543783 0.0000973765 0.0001346871 0.0000003773 0.0000171847 0.0000485113 0.0000463854 0.0000011018 0.0000194034 0.0000237200 0.0000022600 0.0000505425 0.0000792035 0.0000270163 0.0000272893 0.0000019143 0.0000193838 0.0000458316 0.0000048516 0.0000071198 0.0000481690 0.0000210766 0.0000039356 0.0000077845 0.0000041287 0.0000479108 0.0000136101 0.0000560643 0.0000055242 0.0000813313 0.0000437166 0.0000206192 0.0000160348 0.0000240921 0.0000255934 0.0000099034 0.0000260848 0.0000002481 0.0000205425 0.0000085784 0.0000627311 0.0000173099 0.0000501597 0.0000118589 0.0000149665 0.0000123394 0.0000056772 0.0000448256 0.0000207067 0.0000216769 0.0000189076 0.0000700921 0.0000070536 0.0000296701 0.0000222420 0.0000493678 0.0000177160 0.0000232439 0.0000112975 0.0000873332 0.0000111334 0.0000578047
        </DataArray>
        <DataArray type="Float32" Name="contact normal" NumberOfComponents="3" format="ascii">