<?xml version="1.0"?>
<VTKFile type="UnstructuredGrid" version="0.1" byte_order="LittleEndian">
  <UnstructuredGrid>
    <FieldData>
      <DataArray type="Float32" Name="TIME"  NumberOfTuples="1" format="ascii"> 0.4500000000 </DataArray>
      <DataArray type="Int32"   Name="STEP"  NumberOfTuples="1" format="ascii"> 45000 </DataArray>
    </FieldData>
    <Piece NumberOfPoints="248" NumberOfCells="248">
      <Points>
        <DataArray type="Float32" NumberOfComponents="3" format="ascii">
 0.5159715793 0.2312953908 -0.3627223844 0.6245248126 0.1582602036 -0.3192454106 0.5654988241 0.1532702235 -0.4622714866 0.6369987423 0.1540969309 -0.3350906020 0.6933446343 0.1178978644 -0.4774105863 0.7037357006 0.3647528775 -0.3249982930 0.7153086977 0.3581107537 -0.3312623502 0.8092995706 0.1775173530 -0.5172728667 0.8177706791 0.1833934160 -0.5173565175 0.8006827580 0.4517958266 -0.4326598676 0.8722481458 0.2294773097 -0.5986499055 0.7884923486 0.3831108025 -0.6061175087 0.8210716739 0.3927574115 -0.6227254396 0.9357089095 0.3707129425 -0.4816015765 0.9612746554 0.3546084413 -0.5746645130 1.1507190375 0.2512773059 -0.0968899059 1.1460084810 0.2301299481 -0.0983926876 1.1152774570 0.3074749480 -0.1949449475 1.1160479725 0.3024332644 -0.2030907090 1.2336155540 0.4680672717 -0.2742579339 1.2070469519 0.2445954849 -0.3331961244 1.1960218576 0.4335323062 -0.3979965827 1.1851402976 0.4170772196 -0.3831926029 0.3454177988 0.9389931671 -0.0690876644 0.3574364824 0.8248933748 -0.0287174009 0.8015794899 0.7504215193 -0.2837731860 0.8995931172 0.7395236291 -0.3433742714 0.8106300680 0.7350350301 -0.4016972637 0.9349879483 0.7898991971 -0.3400544854 0.8154044713 0.7382473909 -0.4049204312 0.8106886643 0.7406387079 -0.4085669566 0.8394040344 0.8368686793 -0.3004460431 0.8415867324 0.8413577207 -0.3051692570 0.7570372426 0.8544085646 -0.3391158279 0.7531259899 0.8559501245 -0.3452606924 0.5085291932 0.4825050430 0.0069446249 0.5780538161 0.4711134536 0.1017479703 0.4530413640 0.6728307356 -0.0197100114 0.4282110913 0.7012138893 0.0312869139 0.4703209140 0.6728487235 -0.0362181366 0.5836375991 0.4471800166 -0.0321175963 0.6681857687 0.5320741414 0.0539340207 0.6901231740 0.5433972747 0.0379885931 0.5845253668 0.4596965122 -0.1128040518 0.5544372783 0.7637724083 0.1274747735 0.5797737462 0.7881447125 -0.0861071693 0.7670720797 0.5104908601 -0.0758737064 0.7762443780 0.5206998382 -0.0762004635 0.6447583570 0.8752236625 0.0267213007 0.7836737902 0.8117607984 0.0040193812 0.7983790084 0.8277821889 -0.0066976053 0.7410285655 0.9014745649 -0.1711931121 0.9317667361 0.7398916646 -0.1104759405 1.0598959544 0.2900101028 -0.2020616775 1.0666880426 0.2863279616 -0.2134496562 1.0397435103 0.1474995253 -0.2244501400 0.8708211575 0.2235347124 -0.3819792476 0.9663904169 0.3493485164 -0.3571636526 0.9777749680 0.3557836019 -0.3544693480 0.7877434557 0.3038603522 -0.2639478180 0.8346186989 0.2051877940 -0.1419675542 0.7359657422 0.2523457879 -0.1850797181 0.8243111155 0.3001210281 -0.0427834579 0.9860524636 0.5453697135 -0.0561802170 0.3618535013 0.4748771087 -0.2272690151 0.3550188037 0.4707809530 -0.2173833066 0.3459974295 0.5208446147 -0.0871997188 0.3490917188 0.5351638246 -0.0763539482 0.3520514966 0.5480508865 -0.0666435543 0.3491163180 0.5559483403 -0.0598123998 0.3521569989 0.5696865662 -0.0494270995 0.3297136274 0.6450863571 -0.1410530852 0.3349652385 0.6495292546 -0.1423352930 0.3796150770 0.6869616554 -0.0094727862 0.3771633353 0.6958140764 -0.0185546610 0.4187006395 0.4106604832 -0.0401136982 0.4778143001 0.3174618848 -0.1270016397 0.4723576330 0.3095367028 -0.1241550293 0.4837733913 0.3172986438 -0.1299677454 0.4654985692 0.3044747525 -0.1206545445 0.4785401065 0.3079909554 -0.1271995593 0.4894929913 0.3189920369 -0.1328433277 0.4952314425 0.3226544772 -0.1357604479 0.5012899287 0.3286685262 -0.1388710982 0.5080818190 0.3378143703 -0.1423798089 0.3503139652 0.3439225578 0.0027131155 0.5149050252 0.3351746745 -0.1457447427 0.5612770938 0.3264681040 -0.0747349633 0.5691340748 0.3332630655 -0.0791537191 0.5769806193 0.3290954796 -0.0820535896 0.3708045090 0.2669774793 0.0117724911 0.3205599488 0.1964886277 -0.0179576070 0.3316457291 0.1714676569 -0.0254959711 0.3962074799 0.0807449437 -0.0032105215 0.5378099869 0.1358374281 -0.0523697514 0.5532411015 0.1532169775 -0.0600166789 0.5605085005 0.1622991498 -0.0636081086 0.5682477194 0.1661088431 -0.0675275708 1.0899988410 0.0907624646 -0.1735859616 0.6155246646 0.2499497683 -0.0061605643 0.6786368505 0.2483483001 0.0623943500 0.5751457582 0.3330767096 -0.0153049757 0.5796647795 0.3314601295 -0.0223513777 0.5827895299 0.3395943624 -0.0157564392 1.0134735475 0.6893217025 -0.1164208962 1.0953851720 0.7899507779 -0.1454563173 1.0910116260 0.8017734281 -0.1471236948 1.0657658027 0.6655635985 -0.2545885220 1.0048924884 0.7456797214 -0.2744545682 0.8026537771 0.5118199903 -0.3139037134 0.7137342850 0.5574002701 -0.4557917822 0.7246432380 0.5535912837 -0.4652015926 0.7304933651 0.5681597459 -0.4675925787 0.9166709966 0.6431052671 -0.3892571569 0.9260168548 0.6445262730 -0.3947511677 0.9574435011 0.4543695101 -0.4633181400 0.9664150014 0.4637276361 -0.4655063392 0.9357149062 0.6460755859 -0.4004956195 0.9751218896 0.4728333761 -0.4677821148 0.9462219180 0.6479116119 -0.4068059020 0.8649005655 0.7353670484 -0.5143231909 0.8739167288 0.7461581306 -0.5148801203 0.9582150989 0.6502711398 -0.4141468979 0.9304638059 0.7547268225 -0.4953417677 1.0156231628 0.5394642374 -0.5621102524 0.9464400475 0.6289320821 -0.6168203430 1.0819647500 0.6466680950 -0.4971774858 1.0552187787 0.6996485406 -0.5119792336 0.6209697959 0.7946132446 -0.5117830001 0.6987597585 0.1520419194 -0.0757518361 0.6763953601 0.0615662929 -0.0085033797 0.5107891395 0.1804193705 0.0372085938 0.5755144631 0.1201834960 0.0626828512 0.5712974359 0.1111259294 0.0645833452 0.4972304977 0.0814035735 0.0775279674 0.4904161752 0.0897568807 0.0670032713 0.4189377124 0.1185466324 -0.2834819738 0.4240891944 0.1156199086 -0.2782415014 0.4392225945 0.1450526949 -0.2437551482 0.4759263791 0.1938127690 -0.3079633116 0.4766294522 0.1992642637 -0.3062165677 0.4801111818 0.1965907325 -0.3066019890 0.4838406550 0.1940229205 -0.3069488068 0.4849870705 0.1995193576 -0.3051263572 0.4937624957 0.2233056272 -0.2401985843 0.4882257053 0.1549109291 0.1918331192 0.8953367200 0.5622887737 -0.6466323161 0.8877723557 0.5677743639 -0.6432606219 0.8826031609 0.0771141998 -0.3872495730 0.8759031821 0.0797231556 -0.3838093545 0.9766669309 0.0970878110 -0.4368301195 0.9867850481 0.1093385443 -0.4357152694 0.8611833928 0.1809367710 -0.4831633303 0.8665188659 0.1841567245 -0.4832369195 1.1088855639 0.5666596701 -0.3620172191 1.0973069321 0.4381310555 -0.4190153114 1.0965647189 0.4332104565 -0.4232671261 1.0919360961 0.4315279048 -0.4189054815 1.0419122231 0.3503723425 -0.4844170408 0.5382832994 0.9265001790 -0.2719026871 1.0388764649 0.6237854035 -0.3485961726 0.9236552507 0.5928900326 -0.2886014211 0.4612191787 0.9259966616 -0.0002903654 0.4676735493 0.9245407620 0.0041606263 0.3597745608 0.3122726642 -0.2365637423 0.4270444912 0.3454687778 -0.2211995196 0.4510426503 0.2971500027 -0.3237519328 0.5241979491 0.4197653747 -0.0069161647 0.6525809995 0.3910889519 -0.0378739315 0.4454225757 0.1846770213 0.0757221317 0.4874192720 0.2181971135 0.0566405130 0.4051685925 0.2995973331 0.0193633466 0.7285775355 0.0470995692 -0.1698845674 0.8194088889 0.0260621521 -0.1735487282 0.6616724249 0.9052357493 0.1014035720 0.5430524945 0.9495574814 -0.0370568706 0.8465301374 0.2225137265 -0.0508038829 0.8573396095 0.1460702548 -0.0791617651 0.8515400259 0.1434122464 -0.0756753272 0.8537158160 0.1412945522 -0.0803788492 0.7529976656 0.1664539632 -0.1032949644 0.8262361440 0.9130684924 -0.2264355764 1.1017111640 0.3514484089 -0.4397313797 0.6023221963 0.9251156733 -0.3077617207 0.8868751373 0.7774107258 -0.0133458813 0.8726829521 0.7844377351 0.0622547889 0.8831349119 0.8125898128 0.0556626726 0.3977452536 0.1053794682 -0.2082960791 0.3597940353 0.0922594226 -0.2352365345 0.3568086276 0.1009543797 -0.2286603960 0.5781320941 0.8182451674 -0.2416949745 0.6499612814 0.9361423958 -0.2101747006 0.6600532397 0.9354719025 -0.2211903726 0.6311276376 0.9141824402 -0.2392454444 0.2704711013 0.2562834448 -0.1608331335 0.3355893335 0.1708055180 -0.2235686795 1.0131354654 0.8785782779 -0.4016059125 1.0902238693 0.8395839199 -0.3376814240 1.1018304801 0.6322100580 -0.2934168265 1.1055372340 0.6363030704 -0.2962424599 1.1028100314 0.6395112995 -0.3000798225 1.0998716843 0.3359215662 -0.3986164358 0.4679618948 0.0936600900 0.1606476706 0.8851661264 0.0439908780 -0.3140860205 1.0501876165 0.1543379179 -0.4154430310 1.0428030986 0.1593926533 -0.4101607489 0.9971697959 -0.0014877237 -0.4063334806 0.4738940948 0.1666341635 -0.3650618321 0.9575325391 0.8655681696 -0.5040835036 0.9594806439 0.8709161613 -0.4991392922 0.9578698267 0.8736545924 -0.4952245335 0.9614615994 0.8764244236 -0.4940546565 0.9563119940 0.8764773565 -0.4912224678 0.9598561853 0.8794299608 -0.4898639180 0.9583437485 0.8827901060 -0.4853050973 0.8783988821 0.0339525206 -0.1218986526 0.8696991990 0.0353511306 -0.1134228896 0.2920949248 0.2397265237 -0.1380568867 0.7099331971 0.5061975008 0.1412695103 0.7149314472 0.5017419721 0.1342498287 0.8847513794 0.1038788131 -0.6680719111 0.8865656672 0.1090117344 -0.6628875680 0.9107105873 0.1380541895 -0.6394656304 0.8921769814 0.1159997000 -0.6571723998 0.9047369364 0.1332855319 -0.6424531538 0.9015681745 0.1290273064 -0.6460473475 0.8963108460 0.1184489486 -0.6560970417 0.9006061983 0.1248347942 -0.6505120905 0.8613674635 0.0351824579 -0.2478246219 0.8498557739 0.0351603190 -0.2423319751 0.7714808543 0.0616780855 -0.2269901739 0.9475382829 0.2685978749 -0.6319691715 0.3863473518 0.6661163241 -0.2055294432 0.3764299617 0.6546667919 -0.2078970899 0.5681408830 0.4738743064 0.1384485445 0.5511450268 0.4791341069 0.1423994199 0.4575227799 0.3615853191 0.0856775391 0.4939156912 0.3340367277 0.1421801464 0.4623556276 0.3517366052 0.0842190655 0.7243554025 0.8426940679 0.0754143363 0.7383309011 0.8531498429 0.0696099882 0.7214926845 0.0582826297 -0.0165366291 0.6985952531 0.0415156219 0.0426102612 0.3838193876 0.4216982539 0.0202304814 0.3869337675 0.4748301742 -0.0297266581 0.3800519377 0.4730603612 -0.0278477035 0.7164030372 0.9180354366 -0.2618866926 0.7088677415 0.9129031948 -0.2615847396
        </DataArray>
      </Points>
      <Cells>
        <DataArray type="Int32" Name="connectivity" format="ascii">
 0 1 2 3 4 5 6 7 8 9 10 11 12 13 14 15 16 17 18 19 20 21 22 23 24 25 26 27 28 29 30 31 32 33 34 35 36 37 38 39 40 41 42 43 44 45 46 47 48 49 50 51 52 53 54 55 56 57 58 59 60 61 62 63 64 65 66 67 68 69 70 71 72 73 74 75 76 77 78 79 80 81 82 83 84 85 86 87 88 89 90 91 92 93 94 95 96 97 98 99 100 101 102 103 104 105 106 107 108 109 110 111 112 113 114 115 116 117 118 119 120 121 122 123 124 125 126 127 128 129 130 131 132 133 134 135 136 137 138 139 140 141 142 143 144 145 146 147 148 149 150 151 152 153 154 155 156 157 158 159 160 161 162 163 164 165 166 167 168 169 170 171 172 173 174 175 176 177 178 179 180 181 182 183 184 185 186 187 188 189 190 191 192 193 194 195 196 197 198 199 200 201 202 203 204 205 206 207 208 209 210 211 212 213 214 215 216 217 218 219 220 221 222 223 224 225 226 227 228 229 230 231 232 233 234 235 236 237 238 239 240 241 242 243 244 245 246 247
        </DataArray>
        <DataArray type="Int32" Name="offsets" format="ascii">
 1 2 3 4 5 6 7 8 9 10 11 12 13 14 15 16 17 18 19 20 21 22 23 24 25 26 27 28 29 30 31 32 33 34 35 36 37 38 39 40 41 42 43 44 45 46 47 48 49 50 51 52 53 54 55 56 57 58 59 60 61 62 63 64 65 66 67 68 69 70 71 72 73 74 75 76 77 78 79 80 81 82 83 84 85 86 87 88 89 90 91 92 93 94 95 96 97 98 99 100 101 102 103 104 105 106 107 108 109 110 111 112 113 114 115 116 117 118 119 120 121 122 123 124 125 126 127 128 129 130 131 132 133 134 135 136 137 138 139 140 141 142 143 144 145 146 147 148 149 150 151 152 153 154 155 156 157 158 159 160 161 162 163 164 165 166 167 168 169 170 171 172 173 174 175 176 177 178 179 180 181 182 183 184 185 186 187 188 189 190 191 192 193 194 195 196 197 198 199 200 201 202 203 204 205 206 207 208 209 210 211 212 213 214 215 216 217 218 219 220 221 222 223 224 225 226 227 228 229 230 231 232 233 234 235 236 237 238 239 240 241 242 243 244 245 246 247 248
        </DataArray>
        <DataArray type="UInt8" Name="types" format="ascii">
 1 1 1 1 1 1 1 1 1 1 1 1 1 1 1 1 1 1 1 1 1 1 1 1 1 1 1 1 1 1 1 1 1 1 1 1 1 1 1 1 1 1 1 1 1 1 1 1 1 1 1 1 1 1 1 1 1 1 1 1 1 1 1 1 1 1 1 1 1 1 1 1 1 1 1 1 1 1 1 1 1 1 1 1 1 1 1 1 1 1 1 1 1 1 1 1 1 1 1 1 1 1 1 1 1 1 1 1 1 1 1 1 1 1 1 1 1 1 1 1 1 1 1 1 1 1 1 1 1 1 1 1 1 1 1 1 1 1 1 1 1 1 1 1 1 1 1 1 1 1 1 1 1 1 1 1 1 1 1 1 1 1 1 1 1 1 1 1 1 1 1 1 1 1 1 1 1 1 1 1 1 1 1 1 1 1 1 1 1 1 1 1 1 1 1 1 1 1 1 1 1 1 1 1 1 1 1 1 1 1 1 1 1 1 1 1 1 1 1 1 1 1 1 1 1 1 1 1 1 1 1 1 1 1 1 1 1 1 1 1 1 1 1 1 1 1 1 1
        </DataArray>
      </Cells>
      <PointData Scalars="overlap">
        <DataArray type="Float32" Name="overlap" format="ascii">
 0.0002020771 0.0000047281 0.0000361820 0.0000657347 0.0000585242 0.0000960779 0.0000479263 0.0000370766 0.0002343115 0.0002175218 0.0000825049 0.0000249228 0.0002808007 0.0001968080 0.0000503052 0.0001807321 0.0001698435 0.0000196603 0.0004167909 0.0002448106 0.0000218587 0.0000739534 0.0000289693 0.0001811973 0.0000541170 0.0001687116 0.0000653713 0.0000353955 0.0001426283 0.0000979138 0.0001470080 0.0000422827 0.0000454774 0.0000515806 0.0001678791 0.0000549656 0.0000679362 0.0002017350 0.0000666073 0.0000009559 0.0000020326 0.0000077796 0.0000406410 0.0003049193 0.0001842756 0.0000409854 0.0001213590 0.0000014594 0.0001177052 0.0001876860 0.0000360203 0.0002703392 0.0000786173 0.0002050478 0.0000582996 0.0000305156 0.0001299194 0.0001189851 0.0001573019 0.0000962135 0.0000174469 0.0000229543 0.0000100647 0.0000153625 0.0000426565 0.0000335707 0.0000136150 0.0000237174 0.0000069005 0.0000237707 0.0000232968 0.0000456148 0.0000072437 0.0000940905 0.0000283976 0.0000390081 0.0000449885 0.0000346649 0.0000675288 0.0000126331 0.0000316719 0.0000806049 0.0000942862 0.0001051148 0.0000859631 0.0000725982 0.0001038734 0.0000399651 0.0000586399 0.0000069149 0.0000110198 0.0000032209 0.0000623364 0.0000158669 0.0000154552 0.0000914185 0.0000361433 0.0000067008 0.0000838973 0.0000801347 0.0001714695 0.0001327399 0.0000053973 0.0000263058 0.0000437743 0.0000112483 0.0000441912 0.0000660289 0.0001158051 0.0000970403 0.0000331731 0.0002623941 0.0003732530 0.0000196116 0.0000311438 0.0000416888 0.0001613724 0.0000387716 0.0000899872 0.0000450318 0.0001296982 0.0000735448 0.0000410910 0.0001364901 0.0000769948 0.0002475353 0.0000070768 0.0000666194 0.0002107702 0.0000379105 0.0000645882 0.0000580831 0.0000571781 0.0000715182 0.0000590588 0.0000035851 0.0001673073 0.0000656811 0.0001150644 0.0000343492 0.0000118351 0.0000885684 0.0000092398 0.0000685127 0.0003386375 0.0000143411 0.0000329968 0.0001095560 0.0000201014 0.0000691245 0.0000563433 0.0000214852 0.0002131303 0.0000346440 0.0000624971 0.0000642164 0.0000690380 0.0000888291 0.0000493359 0.0000262088 0.0000609018 0.0000119312 0.0000574051 0.0000650727 0.0000580226 0.0000196606 0.0000651582 0.0000395582 0.0000277367 0.0000141560 0.0000909062 0.0000376303 0.0000008927 0.0000104390 0.0000212375 0.0000282508 0.0000094641 0.0001868514 0.0000506837 0.0000085714 0.0000432846 0.0000191585 0.0000488647 0.0000005906 0.0000122564 0.0000192500 0.0001399418 0.0001299694 0.0004399436 0.0001496398 0.0000032786 0.0000179887 0.0000744774 0.0000062209 0.0000350224 0.0001696255 0.0000746215 0.0000066915 0.0000180785 0.0000337342 0.0000155129 0.0000347671 0.0000075051 0.0000436418 0.0000265105 0.0000167740 0.0000186530 0.0000657257 0.0000103905 0.0000335858 0.0000342076 0.0000063305 0.0000022627 0.0000221499 0.0000040354 0.0002459643 0.0000108568 0.0000153455 0.0001092407 0.0000128265 0.0000270296 0.0000006324 0.0000446888 0.0000139204 0.0000064100 0.0000072688 0.0000542163 0.0000461381 0.0000283576 0.0000655159 0.0000583162 0.0000110349 0.0000417757 0.0000179898 0.0000551169 0.0000184303 0.0000680988 0.0000480695 0.0000633361 0.0000335619 0.0000330272 0.0000132477 0.0000915471 0.0000228103 0.0000202762 0.0000141570 0.0000146053 0.0001158498
        </DataArray>
        <DataArray type="Float32" Name="contact normal" NumberOfComponents="3" format="ascii">
 0.6586754662 -0.2212011072 -0.7191777947 -0.3718773701 0.7907314620 -0.4862622508 0.5521532031 0.7594828325 0.3439660848 -0.3397122547 0.7755396321 -0.5321032448 -0.4858431004 0.8083723509 -0.3324012998 -0.5372615599 0.0781176921 -0.8397902372 -0.4327844787 0.0062386769 -0.9014758310 -0.6332717432 0.7369333887 -0.2364235183 -0.5794789905 0.7749790121 -0.2522134618 -0.4087823802 -0.8969993199 -0.1681938931 -0.4674644062 0.4761666570 0.7448102736 0.3863659164 -0.5559130153 0.7359905557 0.4335415432 -0.4961620373 0.7522399637 -0.6082881805 0.0362607049 -0.7928875398 -0.3030333329 -0.0910455913 0.9486208407 -0.6389153767 0.6635435275 -0.3892263203 -0.8829738186 -0.4082062194 -0.2317863629 0.8461516356 -0.2936805156 0.4447236943 0.8556548017 -0.2990054876 0.4224341117 -0.9810214486 -0.0815594917 -0.1759118152 -0.6312278939 -0.2421470188 -0.7368284517 0.8750202497 -0.0679747967 0.4792900892 0.8272255194 -0.1762541270 0.5335095339 0.0494341919 -0.9897887493 0.1336955214 0.3600228873 0.5058008646 -0.7839317610 -0.4482256297 -0.0709507357 -0.8911003187 -0.5737276479 0.7886925923 0.2209085352 0.0127629575 0.6122392378 0.7905695558 -0.7172873394 0.0749779233 -0.6927316824 0.2083266270 0.6605119496 0.7213348605 -0.4256125253 0.7058281311 0.5662690417 -0.0876761988 -0.7164387473 -0.6921187799 -0.0767072155 -0.6719521053 -0.7366114113 0.3846256959 -0.8138781921 -0.4355058697 0.3658537377 -0.8232750790 -0.4340151919 0.5845390956 0.7827616346 -0.2135375121 0.2486510071 0.7938404483 -0.5549684849 0.5824285068 -0.4852996609 0.6521205974 0.9904528011 -0.1353653634 0.0260665904 0.7073869650 0.1623082857 0.6879387342 -0.3819512271 0.8885256270 -0.2542350689 -0.6601959090 0.3224989636 -0.6783330894 -0.6523959397 0.3325536917 -0.6810195152 0.3533771340 0.4989175168 0.7913317336 -0.1037059209 -0.4284921033 -0.8975742863 0.3511907433 -0.9317884954 0.0918436807 -0.8142213104 0.4275197205 -0.3927728939 -0.7005915083 0.7130038411 -0.0282322703 0.2202231654 -0.6179146368 -0.7547736476 -0.5376850058 -0.1356270215 -0.8321659364 -0.3902667866 -0.1436711913 -0.9094231271 0.2664619397 -0.7752612174 0.5726849741 -0.7290913238 0.0018404823 -0.6844139494 0.6742871736 -0.4605289821 0.5772779783 0.6800809641 -0.4559322798 0.5741216234 -0.4779743716 0.8521758660 -0.2129243844 0.1149786269 0.6209541523 0.7753682068 -0.4749332029 -0.7375814046 0.4800126294 0.6131196983 -0.4594023066 0.6426770233 0.6165249586 -0.3482485791 0.7061302306 -0.1737584588 0.6213532876 -0.7640210010 0.9284905473 0.3520331136 -0.1182285518 -0.1680844794 0.6979788111 -0.6961129125 -0.6173644817 -0.7591903421 -0.2061337459 0.0907554177 0.9310181289 0.3535091199 -0.1563392307 0.7092164584 0.6874373136 -0.1466798462 0.6170078266 -0.7731664534 -0.1466841586 0.6170080601 -0.7731654489 -0.1466841423 0.6170080592 -0.7731654528 -0.1467866923 0.6170136080 -0.7731415617 -0.1467892026 0.6170137659 -0.7731409591 0.5770973260 -0.5783067000 0.5766455038 0.5790819774 -0.5715464910 0.5813765321 -0.3837290884 -0.8843523088 -0.2658439028 0.2541918885 -0.5983804392 -0.7598205932 -0.1925415045 -0.2679864566 -0.9439867733 0.4424596006 0.0176784968 0.8966141715 0.4427449089 0.0172437070 0.8964817902 0.4428675007 0.0170572320 0.8964248031 0.4427034137 0.0173069497 0.8965010636 0.4432727343 0.0164388122 0.8962360451 0.4431050540 0.0166949239 0.8963142254 0.4431882077 0.0165797493 0.8962752504 0.4432106025 0.0168122622 0.8962598450 0.4428525952 0.0174290076 0.8964250156 -0.4898450929 -0.1959477571 -0.8495035382 0.4442889897 0.0177761461 0.8957071521 -0.4156470864 -0.1027036373 -0.9037087265 -0.4185264896 -0.0954836131 -0.9031713332 -0.4054982707 -0.1244230616 -0.9055882366 -0.1620049189 -0.3015782599 -0.9395770109 0.9169342960 0.3862870591 0.1000690000 0.9449786919 0.3253030234 -0.0345429408 -0.1087274108 0.4177919464 -0.9020134365 -0.4407621362 -0.0124009546 -0.8975382753 -0.4410340504 -0.0087016124 -0.8974481870 -0.4588209082 0.0216502110 -0.8882649619 -0.4412657987 -0.0076956896 -0.8973434522 -0.5033086584 0.5296231937 -0.6827735108 0.0134432756 0.7040958268 0.7099777074 -0.6166410520 0.1636125057 -0.7700550377 0.5757999292 -0.6389762874 0.5100624919 0.5739514866 -0.6690348860 0.4721991235 0.5766122981 -0.6352157048 0.5138280511 0.4983461228 0.1037014904 -0.8607538224 -0.6672310460 -0.6714146922 0.3224981278 -0.8859050918 -0.0723020442 -0.4581971003 -0.8048601650 0.4001832199 0.4382390961 0.5799518803 -0.4960493487 0.6462127050 -0.8032308616 -0.3852551898 -0.4543111508 0.5753838237 -0.0860519987 0.8133440287 0.6443495803 -0.1369703374 0.7523647686 0.6441282467 -0.1367991959 0.7525853984 -0.3838813146 -0.4951243492 -0.7794145335 -0.3840850626 -0.4950085467 -0.7793877106 -0.6343189938 0.4557037554 -0.6244785837 -0.6343244036 0.4557143632 -0.6244653474 -0.3841755334 -0.4948079564 -0.7794704906 -0.6343291877 0.4557237436 -0.6244536421 -0.3844655441 -0.4945066980 -0.7795186791 0.0324593484 -0.9475602452 0.3179244761 0.7348135964 -0.0972655736 0.6712588076 -0.3855295761 -0.4944806711 -0.7790095069 -0.0490700503 -0.8548704288 0.5165159050 -0.7039141286 0.5382134452 0.4634988532 0.5848322456 0.2049647452 0.7848316365 -0.8436905172 0.5367171437 0.0110008573 -0.5419096370 -0.6557925504 -0.5256139991 -0.3963323354 -0.6974051759 -0.5971153160 -0.4954126664 0.4436197143 0.7468385629 -0.8047890872 0.5416699934 -0.2427099985 0.0185559401 -0.4897391739 -0.8716715085 -0.3980835480 0.0455381188 -0.9162181883 -0.4378314621 -0.0094399838 -0.8990075069 0.7830560079 0.1752698044 -0.5967443206 0.7714396058 -0.0495463644 -0.6343706270 0.4479533237 0.8938049209 0.0212269451 0.4397415889 0.8924764185 0.1005642946 0.0302942138 -0.0307503817 -0.9990679029 -0.1368466119 -0.2850549445 0.9486920910 -0.1401514474 -0.2806434089 0.9495245383 -0.1338645574 -0.2889199914 0.9479480570 -0.1269820093 -0.2979226629 0.9461065776 -0.1212133272 -0.2797853893 0.9523798954 -0.1324488944 -0.4048712711 -0.9047300947 0.5493455730 0.4116036030 0.7271876755 0.6431727218 0.7040714638 0.3010186437 0.6082138055 0.7527728903 0.2518113230 -0.1571963823 0.6713062031 -0.7243184928 -0.1828671827 0.6649007371 -0.7242006651 -0.7001474173 0.5681591921 -0.4324219310 -0.6817824299 0.6056238280 -0.4103565488 0.2927797581 -0.6340452000 0.7157280891 0.2950095897 -0.6245083207 0.7231588341 0.1702641040 -0.6708913290 -0.7217443865 -0.6406441674 0.7524476723 -0.1529625811 -0.6271050232 0.4777804525 -0.6151951959 -0.7312314661 0.3901884280 -0.5595118709 -0.5876186612 0.8061007554 0.0700419960 -0.7721410342 -0.5593983405 0.3014493654 -0.7045898012 0.4879606749 -0.5152160632 -0.1675911795 0.5761995194 -0.7999420669 -0.4678324493 0.3774236831 0.7991771786 -0.4681628479 0.3719406844 0.8015507938 0.7518792949 0.6593007457 0.0002295746 -0.5588807093 0.1806674009 -0.8093278959 -0.6840692088 0.2555966569 0.6831688419 0.6958825173 -0.7051361098 0.1361271056 -0.6099137343 0.2005761965 -0.7666644808 -0.4369807973 -0.2321070392 -0.8690075403 -0.1372669850 -0.2700097911 -0.9530228158 0.1988163126 -0.6125271519 -0.7650376213 0.7335144192 -0.4865199857 0.4746102615 -0.9346112011 0.3109972214 0.1725764496 -0.0269375795 -0.0732551380 -0.9969493726 0.9041047813 0.2911135954 0.3128057209 -0.4113515748 -0.8503204983 -0.3282452316 -0.5380919026 0.6044394327 -0.5874607021 -0.5668319313 0.6186708796 -0.5440109414 -0.5469894816 0.5964048105 -0.5874553677 0.7957190502 -0.3455635991 0.4974102855 0.5752995518 -0.6324592420 -0.5186769060 -0.4738124319 -0.4174492934 -0.7753952971 -0.9995094851 -0.0026209843 -0.0312076858 0.6991525087 0.0279088841 0.7144276477 0.1152108318 -0.2496453639 -0.9614591289 0.1257541543 -0.2502962588 -0.9599675388 -0.2842442293 -0.6954561741 -0.6599590351 0.2694834924 0.4275090707 -0.8629105642 0.2147883410 0.7798739864 -0.5879307220 -0.1322801308 0.9034645765 -0.4077422299 -0.8738822449 -0.0024392932 -0.4861315377 -0.7955921676 0.2174672652 -0.5654565337 0.2434748995 -0.3854977218 0.8900064493 -0.2993299006 0.4733915381 -0.8284334990 -0.3191367964 0.2281903527 -0.9198265424 0.6543244026 -0.5150162535 0.5537308324 -0.7689732259 0.1592912954 -0.6191174857 0.1898196381 -0.6776810762 -0.7104342784 0.1939915248 -0.6754331990 -0.7114473150 0.1895395134 -0.6756909229 -0.7124019579 -0.3115733725 0.9475655505 -0.0710039505 -0.1618576991 0.9160106457 0.3670511984 -0.3898361070 0.4695510699 -0.7921802840 -0.1575309518 -0.6710822425 -0.7244533270 -0.8688298610 -0.4235237711 -0.2564415879 -0.0771375933 0.8557674022 -0.5115778973 0.4082231651 0.7179391893 0.5638414387 0.2966507906 -0.7205260861 0.6267698682 0.3029741382 -0.7175947949 0.6271079507 0.3028606767 -0.7176483659 0.6271014538 0.3445899092 -0.6968418418 0.6290224495 0.3029573475 -0.7186399715 0.6259180753 0.3443070727 -0.6965190220 0.6295346628 0.3444402013 -0.6964561217 0.6295314275 0.5135988444 0.7820132751 0.3530884657 0.4303604215 0.8173509462 0.3830500468 0.9292256677 0.1625236514 -0.3318519569 -0.6135463068 0.3939674311 -0.6843614488 -0.6132254283 0.3941672453 -0.6845339706 0.2669903804 -0.7299311699 0.6292190588 0.2669615566 -0.7299081445 0.6292579979 0.2669911608 -0.7299137300 0.6292389585 0.2669654973 -0.7299081912 0.6292562719 0.2669493069 -0.7299046607 0.6292672356 0.2669519214 -0.7299052273 0.6292654693 0.2670066570 -0.7299170876 0.6292284882 0.2669943512 -0.7299144213 0.6292368028 -0.2607351008 0.8323139354 -0.4891530641 -0.4768252401 0.4000650782 -0.7826784931 0.7833723670 -0.4820060459 0.3924256698 -0.6592234072 -0.7294504848 0.1825554425 0.6532510057 -0.2861458243 -0.7009876538 0.5540905508 -0.4531140104 -0.6983347013 -0.1469404971 -0.9888345646 -0.0247930259 -0.4518851848 -0.0311344253 -0.8915326283 0.5941761730 0.2777962516 0.7548403262 0.1198002805 0.7655843391 -0.6320826785 0.7514601884 0.2440418438 0.6129854515 -0.4794702549 -0.0678382258 -0.8749321401 -0.4204090685 -0.0885497856 -0.9030034056 -0.8853900404 0.4455833206 0.1324385925 -0.8495002523 0.4531798767 -0.2701431486 -0.4167491034 -0.6928733307 0.5884273382 -0.3169491381 0.5618352978 -0.7641232505 -0.3612741673 0.5493774183 -0.7534357493 0.2671787793 -0.2871721939 0.9198628327 0.2573163852 -0.3367755143 0.9057430822
        </DataArray>
        <DataArray type="Float32" Name="contact force" NumberOfComponents="3" format="ascii">