<?xml version="1.0"?>
<VTKFile type="UnstructuredGrid" version="0.1" byte_order="LittleEndian">
  <UnstructuredGrid>
    <FieldData>
      <DataArray type="Float32" Name="TIME"  NumberOfTuples="1" format="ascii"> 0.2500000000 </DataArray>
      <DataArray type="Int32"   Name="STEP"  NumberOfTuples="1" format="ascii"> 25000 </DataArray>
    </FieldData>
    <Piece NumberOfPoints="281" NumberOfCells="281">
      <Points>
        <DataArray type="Float32" NumberOfComponents="3" format="ascii">
 0.4404919081 0.2331223866 -0.1006638560 0.5163370069 0.1625517753 -0.0097262706 0.5347743864 0.1582572060 -0.0178336752 0.6511697238 0.1198187562 -0.1163802638 0.5885480021 0.3699489734 0.0170040480 0.6017231309 0.3633387744 0.0170404157 0.6203912920 0.4515092079 0.0095213589 0.7721637587 0.1802073416 -0.0989830857 0.7796784061 0.1861981676 -0.0952496143 0.7243313848 0.4560342508 -0.0350945484 0.8657026030 0.2313172078 -0.1428297117 0.7947481994 0.3835827992 -0.1923962371 0.8312884157 0.3933215976 -0.1920918559 0.8538538434 0.3850465239 -0.0119976494 0.8667897868 0.3758498934 -0.0132920726 0.9329024981 0.3581515032 -0.0831992913 0.8778107225 0.2672036510 0.4303168440 0.8962521009 0.3161883751 0.3191179150 1.0225626046 0.4905223627 0.3219271059 1.0327988918 0.5002260943 0.3096218520 1.0377950073 0.2577541277 0.2476216250 1.0569703684 0.4454835591 0.1812114199 1.0405639213 0.4290913416 0.1895991735 0.2988006643 0.8348020982 -0.0428438543 0.3102798272 0.8259219098 -0.0382743799 0.1507201402 0.9420728543 0.0517583972 0.1408736239 0.9434551420 0.0608274824 0.3213984275 0.8470544813 0.0051561622 0.2151736843 0.7577956084 0.0070793036 0.1372788799 0.8371961922 0.1052030575 0.1441800990 0.8303109865 0.1068421746 0.1449754525 0.8359615961 0.1150823213 0.1520355056 0.8291721699 0.1164708952 0.2440766278 0.7485328431 0.0659807074 0.6548529580 0.7576983135 0.0894325245 0.7693836576 0.7469689784 0.0827585718 0.7179673611 0.7399949527 -0.0102065079 0.7989972348 0.7978977621 0.1009800764 0.7236878409 0.7432036844 -0.0109120991 0.7212106429 0.7454527068 -0.0163975732 0.6958299691 0.8443189950 0.0901765762 0.6999509165 0.8487423059 0.0869109747 0.5793526242 0.7770140990 -0.0445473811 0.8165882307 0.8478697214 0.0413416316 0.6410058443 0.8598619359 0.0170975083 0.6404124085 0.8612189230 0.0098009375 0.2604758226 0.4919754813 0.2162093820 0.2776548352 0.4834816265 0.3327579573 0.2234136459 0.6808810226 0.1620420944 0.1776159158 0.7099912777 0.1948153972 0.2464079322 0.6808164336 0.1555241756 0.3795316655 0.5446757779 0.3310242795 0.3836439867 0.4676905482 0.1464289058 0.2440788016 0.7762672540 0.3371953394 0.3662124513 0.7965085585 0.1596447958 0.5276875655 0.5217127445 0.2630721918 0.3707710065 0.8867905045 0.2875344690 0.5043261493 0.8247984834 0.3339600307 0.5482708549 0.9102431494 0.1569253325 0.6889324011 0.7525817014 0.3037194423 0.8370160951 0.3063985545 0.2993922602 0.8462045150 0.3029943371 0.2936646442 0.8378170080 0.1596713185 0.2694568730 0.7628540294 0.2297419246 0.0481028610 0.8355643891 0.3574260906 0.1113396858 0.8443461419 0.3639981483 0.1189484025 0.6442452743 0.3114938254 0.1074013567 0.6341437896 0.3113839753 0.1117335674 0.6189763250 0.2160513239 0.2439374112 0.5517303355 0.2608833635 0.1586558482 0.5749118830 0.3042925711 0.3196109321 0.5633809081 0.3129441083 0.3244202241 0.4869621651 0.4012553178 0.2859876050 0.2402850542 0.4773323350 -0.0590000775 0.2296359970 0.4733289322 -0.0533466370 0.1641881166 0.5078381755 0.0431280897 0.1669670397 0.5167236306 0.0509778094 0.1607628478 0.5259617327 0.0562750861 0.1583930556 0.5405420240 0.0669542409 0.1564386754 0.5536655447 0.0766021103 0.1506296401 0.5616569625 0.0810789273 0.1711215640 0.6487829844 -0.0020350324 0.1763515391 0.6532728031 -0.0008297057 0.1537205045 0.6941283399 0.1365105443 0.1557640531 0.7027469877 0.1271106036 0.2032691096 0.4179243314 0.1345228568 0.2963332789 0.3237119947 0.0876796547 0.2901956406 0.3157754542 0.0878460492 0.3029881307 0.3235669367 0.0878448094 0.2825065036 0.3106960478 0.0878638045 0.2970875659 0.3142497002 0.0880808110 0.2725453701 0.3081421945 0.0877212155 0.3093850020 0.3252765969 0.0879316420 0.2900829553 0.3079619209 0.0881715221 0.3034879259 0.3142626981 0.0882340582 0.2814377108 0.3040880091 0.0881171687 0.3158137686 0.3289540645 0.0879412569 0.2701870710 0.3024948062 0.0878977908 0.3226109231 0.3349826555 0.0878703819 0.3302358379 0.3441435990 0.0877117189 0.1229423944 0.3511840862 0.1421110498 0.3378462991 0.3415261763 0.0879898804 0.3456824834 0.3349623316 0.1726330785 0.3546793193 0.3417682156 0.1722268423 0.1369864338 0.2747330585 0.1616120181 0.1066092861 0.2029512710 0.1136350314 0.1199786901 0.1779260569 0.1127747535 0.1840088701 0.0790476225 0.1721361746 0.3320678956 0.1619677588 0.1862479955 0.8451273444 0.1030407138 0.3397327254 0.3812580475 0.2552836059 0.3517812428 0.3902424062 0.2565346836 0.3488994891 0.3732772248 0.2635416793 0.2634954503 0.3771867951 0.2635629989 0.2656303658 0.3762063019 0.2670069259 0.2612057186 0.3379017832 0.3483920885 0.2330457660 0.4070410170 0.3736493235 0.2830076469 0.7642580687 0.7030972029 0.3380452963 0.7935390094 0.6219380684 0.1896921747 0.6704111278 0.5185494389 0.0692142259 0.6735992689 0.5373741500 0.0760357655 0.6580115036 0.5599258436 -0.0988451103 0.6782735782 0.5706921971 -0.1019097179 0.8060646241 0.6498024776 0.0526235770 0.8168910061 0.6512396108 0.0521014310 0.8772234975 0.4601560535 0.0108965573 0.8861521098 0.4695915696 0.0129215321 0.8281454694 0.6528047472 0.0515194180 0.8948884482 0.4787693008 0.0147517720 0.8072351611 0.7415182542 -0.0806690987 0.8146604183 0.7530440742 -0.0769279698 0.8403788268 0.6546560934 0.0508084049 0.8544064475 0.6570302075 0.0498682583 0.8675646713 0.7593875974 -0.0374508729 0.9746465871 0.5439729035 -0.0513324794 0.9388051093 0.6313376077 -0.1342394298 1.0026266278 0.6534238285 0.0344026350 0.9857706606 0.7057234783 0.0075244682 1.0139091928 0.6463895944 0.0258264767 0.4682481661 0.1624458387 0.2402944624 0.4173146149 0.0731322945 0.2916445250 0.2492155789 0.1905550538 0.2517216485 0.3028307460 0.1276275290 0.3063849222 0.2186524892 0.0922498664 0.2835999251 0.2175242947 0.1002764731 0.2708989048 0.2708308808 0.1905408669 -0.0725031942 0.3367267524 0.1101799805 -0.0624334310 0.3787273313 0.1959513650 -0.0707218578 0.3817594887 0.1988223074 -0.0676151794 0.3620139533 0.2266311695 -0.0030282259 0.3709459574 0.2311355418 0.0003149126 0.1655415095 0.1706491677 0.3747710802 0.1711125594 0.1714119467 0.3726465223 0.2829812422 0.1656599863 0.3833841946 0.1645203311 0.1780635530 0.3711355219 0.2197173628 0.2133796514 0.4597292551 0.2922881385 0.1748022978 0.3834901956 0.1703567444 0.1790843664 0.3687477733 0.2166587808 0.2181056117 0.4576082949 0.2244300689 0.2189623223 0.4555526707 0.5145375208 0.4974680466 0.0064099648 0.5093793842 0.4881342572 0.0065067318 0.5890340852 0.3944324075 0.0840699246 0.8994305965 0.5687516328 -0.1834298505 0.9051860824 0.5668324983 -0.1867471754 0.8096223940 0.0636406117 0.0236213070 0.7764828018 0.0835290078 0.0526396494 0.7689453997 0.0861163499 0.0524907306 0.8827670704 0.1037328467 0.0522322545 0.8911659711 0.1161398108 0.0576389736 0.8021142714 0.1850346013 -0.0447064823 0.8068593016 0.1883236458 -0.0423597498 0.4446424360 0.1715993901 0.3613382247 0.4571764123 0.1712095987 0.3614305723 1.0425045604 0.5705748351 0.1124027728 0.9635784803 0.5766741145 0.1683199710 0.9802761040 0.4467915684 0.1157836561 0.9816125473 0.4417778594 0.1118108171 0.9754892300 0.4401259102 0.1135484890 0.9620380928 0.3569269632 0.0343123207 0.4150003674 0.9312055336 -0.0244907626 0.8951117542 0.6329879699 0.1461619912 0.2246801934 0.9333926083 0.1835979700 0.2438368912 0.3147700190 -0.0637722211 0.2959433247 0.3493561363 -0.0199540700 0.3649985094 0.2993053278 -0.0982508982 0.3121324056 0.4484922889 -0.0766666429 0.2810858016 0.4291484041 0.2129250946 0.4091069008 0.4016135501 0.2462533880 0.1733886621 0.1946707564 0.2550345533 0.2193244163 0.2283907969 0.2570433240 0.1638536138 0.3078931385 0.1836670989 0.4882378042 0.0962933760 0.2726189889 0.5317172428 0.0655460106 0.1832481490 0.5356252116 0.0632180680 0.1796957883 0.3508716974 0.9185893368 0.3607190350 0.3104937356 0.9584478114 0.1818614413 0.5869797237 0.2355306689 0.3296139643 0.5974856540 0.2322342872 0.3317137053 0.6079151257 0.1659646209 0.3169097802 0.6057328022 0.1608053323 0.3145413876 0.5290659525 0.1770124375 0.2409200177 0.6493418410 0.9217066840 0.1476819211 0.6714875069 0.9149545846 0.0736608905 0.9783367619 0.1389901195 -0.0193687317 0.9685617039 0.1359191676 -0.0111917111 0.9986649021 0.2861324420 -0.0304204916 0.9734701045 0.2840365209 0.0839565292 0.9934588739 0.3592427830 0.1019863917 0.7087818353 0.7131164366 0.3342700284 0.6038539726 0.7915420715 0.3676241726 0.4373962429 0.8232860013 0.0207314219 0.4859458648 0.9428417933 0.0790389319 0.5000211323 0.9420628823 0.0740432843 0.1310249299 0.2586392340 -0.0359330141 0.1254134785 0.2531009055 -0.0397650695 0.2176412484 0.1728845027 -0.0597753754 0.8966192043 0.8863690442 0.0808651094 0.9414255958 0.8705609437 0.1746224154 0.9350191775 0.8498190852 0.1743303132 0.2476163170 0.3275604349 0.4363725628 0.9109831401 0.6196227862 0.2415977809 0.9148629252 0.6226497693 0.2413732587 0.9134237639 0.6246738905 0.2373695404 0.9171944631 0.6275658239 0.2372400834 0.9195151700 0.6324553055 0.2331197100 0.9220357163 0.6376224868 0.2288195024 0.9261362991 0.6410184574 0.2283930449 0.9732471059 0.3450809507 0.1375972776 0.1541828982 0.1058398229 0.3429672736 0.1948787192 0.2299540801 0.2703372029 0.7447157846 0.0521127225 0.1194528751 0.7490150133 0.0460184245 0.1148877647 0.9376911534 0.1624733310 0.1041296179 0.9286789251 0.1675272009 0.1052174967 0.9116788360 0.0128053216 0.0383223286 0.9058350397 0.0063728972 0.0427331112 0.8868535225 0.0062038282 0.0912237112 0.4036426622 0.1683829284 -0.1311150124 0.4538800922 0.3378636022 -0.0585703265 0.8947206778 0.8758674477 -0.0302364301 0.8914616396 0.8786571766 -0.0275878791 0.8940852877 0.8815004028 -0.0249462858 0.8882084369 0.8815336628 -0.0248393957 0.8907019267 0.8845632946 -0.0220577434 0.8848933218 0.8846628096 -0.0218355909 0.8872280340 0.8879891721 -0.0188086597 0.8835419956 0.8921001401 -0.0149145003 0.6125218816 0.0664994852 0.3802298384 0.6065064958 0.0706682293 0.3821382857 0.6068436713 0.0675787674 0.3773686056 0.6423830783 0.0368904967 0.2988178473 0.9095073141 0.1044730137 -0.1952000513 0.9190154465 0.1396066948 -0.1586572503 0.9109523825 0.1169244269 -0.1824043944 0.9140993649 0.1194540273 -0.1795862687 0.9152730572 0.1260161200 -0.1728052579 0.6799697377 0.0442144693 0.1665682201 0.6034244465 0.0699457418 0.1428571644 0.9614161437 0.2666745993 -0.1416220845 0.9477547582 0.2707893874 -0.1381860264 0.2514530834 0.6690880287 -0.0323166799 0.2438050717 0.6574934824 -0.0388316785 0.4564720996 0.7491445569 -0.0039633162 0.4588376234 0.7453315854 -0.0034825015 0.5496757431 0.5004305028 -0.1029579649 0.2350214161 0.4918857903 0.3560793365 0.1789038672 0.3719974350 0.2651182477 0.1805266718 0.3512884160 0.3347234496 0.1848815010 0.3460906499 0.3326630328 0.1838966502 0.3621916594 0.2663269553 0.4211927830 0.8262496052 0.3740476237 0.4185285315 0.8563196760 0.3686193103 0.4608903659 0.0702944355 0.3055994250 0.4132100620 0.0543781385 0.3477494781 0.7697998794 0.0174366764 0.1907004103 0.1442589733 0.4296502985 0.1713156179 0.1702825067 0.4817290344 0.1272979670 0.1633278180 0.4798938746 0.1257872729 0.5688811340 0.9245420861 0.0648255213 0.5620907129 0.9193134104 0.0617015470
        </DataArray>
      </Points>
      <Cells>
        <DataArray type="Int32" Name="connectivity" format="ascii">
 0 1 2 3 4 5 6 7 8 9 10 11 12 13 14 15 16 17 18 19 20 21 22 23 24 25 26 27 28 29 30 31 32 33 34 35 36 37 38 39 40 41 42 43 44 45 46 47 48 49 50 51 52 53 54 55 56 57 58 59 60 61 62 63 64 65 66 67 68 69 70 71 72 73 74 75 76 77 78 79 80 81 82 83 84 85 86 87 88 89 90 91 92 93 94 95 96 97 98 99 100 101 102 103 104 105 106 107 108 109 110 111 112 113 114 115 116 117 118 119 120 121 122 123 124 125 126 127 128 129 130 131 132 133 134 135 136 137 138 139 140 141 142 143 144 145 146 147 148 149 150 151 152 153 154 155 156 157 158 159 160 161 162 163 164 165 166 167 168 169 170 171 172 173 174 175 176 177 178 179 180 181 182 183 184 185 186 187 188 189 190 191 192 193 194 195 196 197 198 199 200 201 202 203 204 205 206 207 208 209 210 211 212 213 214 215 216 217 218 219 220 221 222 223 224 225 226 227 228 229 230 231 232 233 234 235 236 237 238 239 240 241 242 243 244 245 246 247 248 249 250 251 252 253 254 255 256 257 258 259 260 261 262 263 264 265 266 267 268 269 270 271 272 273 274 275 276 277 278 279 280
        </DataArray>
        <DataArray type="Int32" Name="offsets" format="ascii">
 1 2 3 4 5 6 7 8 9 10 11 12 13 14 15 16 17 18 19 20 21 22 23 24 25 26 27 28 29 30 31 32 33 34 35 36 37 38 39 40 41 42 43 44 45 46 47 48 49 50 51 52 53 54 55 56 57 58 59 60 61 62 63 64 65 66 67 68 69 70 71 72 73 74 75 76 77 78 79 80 81 82 83 84 85 86 87 88 89 90 91 92 93 94 95 96 97 98 99 100 101 102 103 104 105 106 107 108 109 110 111 112 113 114 115 116 117 118 119 120 121 122 123 124 125 126 127 128 129 130 131 132 133 134 135 136 137 138 139 140 141 142 143 144 145 146 147 148 149 150 151 152 153 154 155 156 157 158 159 160 161 162 163 164 165 166 167 168 169 170 171 172 173 174 175 176 177 178 179 180 181 182 183 184 185 186 187 188 189 190 191 192 193 194 195 196 197 198 199 200 201 202 203 204 205 206 207 208 209 210 211 212 213 214 215 216 217 218 219 220 221 222 223 224 225 226 227 228 229 230 231 232 233 234 235 236 237 238 239 240 241 242 243 244 245 246 247 248 249 250 251 252 253 254 255 256 257 258 259 260 261 262 263 264 265 266 267 268 269 270 271 272 273 274 275 276 277 278 279 280 281
        </DataArray>
        <DataArray type="UInt8" Name="types" format="ascii">
 1 1 1 1 1 1 1 1 1 1 1 1 1 1 1 1 1 1 1 1 1 1 1 1 1 1 1 1 1 1 1 1 1 1 1 1 1 1 1 1 1 1 1 1 1 1 1 1 1 1 1 1 1 1 1 1 1 1 1 1 1 1 1 1 1 1 1 1 1 1 1 1 1 1 1 1 1 1 1 1 1 1 1 1 1 1 1 1 1 1 1 1 1 1 1 1 1 1 1 1 1 1 1 1 1 1 1 1 1 1 1 1 1 1 1 1 1 1 1 1 1 1 1 1 1 1 1 1 1 1 1 1 1 1 1 1 1 1 1 1 1 1 1 1 1 1 1 1 1 1 1 1 1 1 1 1 1 1 1 1 1 1 1 1 1 1 1 1 1 1 1 1 1 1 1 1 1 1 1 1 1 1 1 1 1 1 1 1 1 1 1 1 1 1 1 1 1 1 1 1 1 1 1 1 1 1 1 1 1 1 1 1 1 1 1 1 1 1 1 1 1 1 1 1 1 1 1 1 1 1 1 1 1 1 1 1 1 1 1 1 1 1 1 1 1 1 1 1 1 1 1 1 1 1 1 1 1 1 1 1 1 1 1 1 1 1 1 1 1 1 1 1 1 1 1 1 1 1 1 1 1
        </DataArray>
      </Cells>
      <PointData Scalars="overlap">
        <DataArray type="Float32" Name="overlap" format="ascii">
 0.0002308999 0.0000391968 0.0001784467 0.0000390744 0.0000935954 0.0000376250 0.0000013098 0.0000430234 0.0002409339 0.0002603892 0.0000858355 0.0000047994 0.0002996288 0.0000277867 0.0002268861 0.0000587563 0.0002590482 0.0002711296 0.0000360617 0.0000051463 0.0000389303 0.0000204028 0.0000086789 0.0000426582 0.0000131665 0.0003302739 0.0002439417 0.0001757225 0.0001321958 0.0002523486 0.0002624496 0.0000491234 0.0000192130 0.0000984257 0.0001493544 0.0000776082 0.0000542359 0.0000814186 0.0001042179 0.0001583318 0.0000204358 0.0000139455 0.0001780281 0.0000474302 0.0000494881 0.0001660045 0.0001282704 0.0000561097 0.0002809854 0.0001962742 0.0000835366 0.0001098772 0.0003312519 0.0001934195 0.0000700196 0.0000611159 0.0001979244 0.0001478021 0.0002682347 0.0000000969 0.0001096132 0.0002677586 0.0001831959 0.0001699090 0.0000014963 0.0003234018 0.0000380862 0.0001687679 0.0000523172 0.0001268860 0.0000452094 0.0000488628 0.0001296597 0.0000960753 0.0000580180 0.0000221366 0.0000215636 0.0000397677 0.0000324845 0.0000001369 0.0000045769 0.0000969276 0.0000614076 0.0000839722 0.0000335257 0.0000060515 0.0000802605 0.0000697045 0.0001016000 0.0000481882 0.0000652201 0.0000244767 0.0001138211 0.0000268810 0.0000353067 0.0000112170 0.0001269731 0.0000084742 0.0001376129 0.0001186333 0.0000427823 0.0001347409 0.0000036966 0.0000217300 0.0000007680 0.0000094255 0.0000511664 0.0000662151 0.0000425264 0.0002464077 0.0001469190 0.0001281594 0.0000492569 0.0000650809 0.0000542842 0.0002766329 0.0000100915 0.0000708318 0.0000828668 0.0000045889 0.0000089905 0.0001367453 0.0000634259 0.0000084547 0.0000181736 0.0000360655 0.0001607460 0.0000238816 0.0000942180 0.0001376918 0.0001318601 0.0000279929 0.0000214639 0.0001314629 0.0000098626 0.0002182628 0.0000069883 0.0000290136 0.0000293627 0.0000450711 0.0000699722 0.0000661168 0.0000673447 0.0000451584 0.0000038589 0.0000393628 0.0001115774 0.0000458511 0.0000414369 0.0000261840 0.0000349470 0.0000748937 0.0000542073 0.0000856096 0.0000195985 0.0000506037 0.0000369767 0.0001104205 0.0000391569 0.0000279411 0.0000389198 0.0000674233 0.0000088812 0.0000696767 0.0000249638 0.0000426526 0.0000231297 0.0000653843 0.0000672065 0.0000338702 0.0002154378 0.0000375422 0.0000695255 0.0000032261 0.0000024800 0.0000417597 0.0000233366 0.0000292206 0.0000458920 0.0000668111 0.0000752500 0.0000768439 0.0000187015 0.0004802491 0.0000534632 0.0002822684 0.0000531130 0.0000870203 0.0000208340 0.0000048245 0.0000442864 0.0000433557 0.0000093130 0.0000244421 0.0000213906 0.0000137741 0.0000157792 0.0000135339 0.0000040492 0.0000213627 0.0000855987 0.0000545775 0.0000157129 0.0000445595 0.0000501115 0.0000038689 0.0000378423 0.0000117408 0.0000040502 0.0000306746 0.0000422128 0.0000126887 0.0000372353 0.0000909315 0.0007758968 0.0009904922 0.0003087328 0.0000698103 0.0000166619 0.0000431227 0.0000188638 0.0000043141 0.0000022998 0.0000070239 0.0000205974 0.0000243622 0.0000154353 0.0000004594 0.0000190447 0.0000940206 0.0000004301 0.0000430896 0.0000134324 0.0000078520 0.0000421690 0.0000061231 0.0000096478 0.0000656910 0.0001781513 0.0000180051 0.0000321682 0.0000539831 0.0000242840 0.0000435191 0.0000610286 0.0000034763 0.0000652415 0.0000149148 0.0000011330 0.0000144497 0.0000256396 0.0000212077 0.0000186984 0.0000178564 0.0000006572 0.0000375402 0.0000265163 0.0000445556 0.0000358242 0.0000090361 0.0000108771 0.0001539791 0.0001274532 0.0000937805 0.0001303559 0.0000313544 0.0000074394 0.0001059234 0.0000443576 0.0001354287 0.0001373054 0.0000408586 0.0000152382 0.0000540273 0.0000087465 0.0000084536 0.0000442578 0.0000038546 0.0000091833 0.0000044566 0.0001098341
        </DataArray>
        <DataArray type="Float32" Name="contact normal" NumberOfComponents="3" format="ascii">
 0.9181420212 -0.2283089246 -0.3238676641 -0.1371542087 0.7316173257 -0.6677760192 -0.0871897385 0.7158644945 -0.6927741155 -0.2731978410 0.7941333377 -0.5428767647 -0.0820624619 0.0532260624 -0.9952048727 0.0392881745 -0.0184784184 -0.9990570491 0.4905923227 -0.7758263847 -0.3967525597 -0.4513037742 0.7229300587 -0.5231606194 -0.3964454818 0.7613790646 -0.5129648136 -0.2804085301 -0.9058664882 -0.3174538736 -0.7621007529 0.4851735966 0.4287295459 -0.0015792313 -0.5344978235 0.8451683754 0.0323071091 -0.4738153635 0.8800313926 -0.1911698205 0.1697894858 -0.9667603789 -0.1676905845 0.0115713836 -0.9857717641 -0.7126417962 -0.0749469842 0.6975131683 -0.5234081663 0.5485175100 -0.6520524770 0.5508129751 -0.2754169465 0.7878772569 -0.7945514614 -0.0898158950 -0.6005173438 -0.7861394424 -0.0290166530 -0.6173676465 -0.2412515834 -0.2377783247 -0.9408821083 0.5477863994 -0.0391097194 0.8357035901 0.4805887623 -0.1490226499 0.8641913512 -0.6828712244 -0.5178355417 0.5152991778 -0.6337162573 -0.5011088206 0.5893162607 0.0323818114 -0.9820378230 0.1858847289 0.0568032800 -0.9669672176 0.2484910209 -0.8323245424 -0.5441219742 0.1056746582 0.5254391446 0.7120340599 0.4657480035 0.6589625320 0.5262132434 -0.5374644211 0.6901221849 0.4874593584 -0.5348969470 0.6977527892 0.6993174011 -0.1552295646 0.7561961785 0.6359925852 -0.1538855784 0.2162363139 0.7448071802 -0.6312718280 0.0214313072 -0.0968634483 -0.9950669181 -0.6122408696 0.7852817475 -0.0921612427 -0.3596613017 0.6281209753 0.6900056438 -0.3108556029 0.0503263167 -0.9491238360 -0.1547345819 0.6779471167 0.7186410203 -0.6424655405 0.7113380462 0.2850196716 0.2481061553 -0.7309447232 -0.6357382695 0.2782935037 -0.6871776543 -0.6710734663 0.3652618456 0.1403388815 0.9202656043 -0.3620051030 -0.6982530942 0.6175717950 0.5449799360 -0.8177752856 -0.1850417564 0.5277142732 -0.8273823301 -0.1922397611 0.6143881975 0.7865239466 0.0625077930 0.4763718495 0.7858899567 -0.3942674688 0.2123268607 -0.4632146096 0.8604356627 0.8646274200 -0.1194284949 0.4880125605 0.3038268853 0.1870628290 0.9341823814 -0.2600069588 0.2969029000 -0.9188280847 -0.0585509156 0.5205865395 0.8517989465 0.3181597084 -0.4420600671 -0.8386639953 0.2706603159 -0.9238671537 0.2705780399 -0.5380079713 0.4075649362 -0.7378605868 0.5494439939 -0.6293060903 -0.5496227272 -0.0863795733 -0.1601023413 -0.9833136883 -0.0302779785 -0.7593278127 0.6500034746 -0.3248662210 -0.0223568696 -0.9454956948 0.3237751202 -0.4417175026 0.8366930855 0.3286969236 -0.4382989894 0.8365717711 -0.3363728376 0.8319251901 -0.4413091798 -0.2620202445 0.6380726603 0.7240225630 -0.6495671288 -0.7308877997 0.2094410881 0.2427791554 -0.4369596997 0.8660972824 0.5550980629 -0.7889625500 0.2634468356 0.2145507182 -0.3240205680 0.9214003803 0.2027254886 0.6018075897 -0.7724830104 0.8744161955 0.3617623701 0.3233021877 0.2284295800 0.6341075187 -0.7387337691 0.1747433386 0.6811990540 -0.7109378415 0.8787982356 0.4104864471 -0.2433403746 -0.0882644139 0.9397565995 0.3302528227 -0.4614809537 0.7204549535 0.5176678369 0.2284410746 0.5993952780 -0.7671635915 0.2786890216 0.5963688786 -0.7527792438 0.2284256939 0.5993959490 -0.7671676471 0.2284218105 0.5993961183 -0.7671686711 0.2284221878 0.5993961018 -0.7671685716 0.2283205166 0.5994005313 -0.7671953759 0.2438179729 -0.5586670409 0.7927445575 0.2433495477 -0.5517821065 0.7976951201 -0.2123467899 -0.8949446079 -0.3924066635 0.5813870303 -0.6101334969 -0.5382622381 0.2712220517 -0.2901948903 -0.9177284589 -0.0275631392 0.0424795785 0.9987170564 -0.0272478591 0.0420453942 0.9987440808 -0.0271129365 0.0418600001 0.9987555402 -0.0272933891 0.0421080899 0.9987401963 -0.0266649036 0.0412425802 0.9987932882 -0.0277187583 0.0426938802 0.9987036112 -0.0268507041 0.0414987975 0.9987776977 -0.0265590361 0.0410967818 0.9988021186 0.0137451071 -0.0144185633 0.9998015688 -0.0267716558 0.0413895900 0.9987843512 -0.0267589119 0.0413842276 0.9987849150 -0.0273608152 0.0422009448 0.9987344322 -0.0267314010 0.0416171588 0.9987759730 -0.0271266967 0.0422331850 0.9987394557 -0.0382392336 -0.2214382944 -0.9744243648 -0.0255049076 0.0425864899 0.9987671854 0.0550827618 -0.1276395208 -0.9902898778 0.0522762741 -0.1204658740 -0.9913400851 0.2972705827 -0.3216471610 -0.8989845964 0.7628862052 0.4005630702 0.5074976499 0.8504927718 0.3376140446 0.4033346031 0.7591550393 -0.6025223094 -0.2462732078 0.0288459733 -0.0343003338 -0.9989951936 -0.1389939553 0.4226922779 -0.8955511814 -0.3278031787 0.2313707721 -0.9159763326 -0.2806964387 0.2276951668 -0.9323971366 -0.3637031917 0.7282076583 0.5808903466 -0.3813755599 0.7208960405 0.5786722570 -0.1923587813 0.8312114787 0.5216182291 0.2717457257 -0.6175891558 0.7380636119 -0.4303158436 -0.8864648875 -0.1703181667 0.8470304826 0.0934972775 -0.5232567445 0.6794165217 0.5007653796 0.5363088893 -0.5004670233 -0.4122310133 -0.7613135690 0.1552685513 0.5901361163 -0.7922316841 0.1634129731 -0.0898199067 0.9824604748 0.2517410334 -0.1405687468 0.9575316598 0.0264371842 -0.5162200986 -0.8560478287 0.0262438206 -0.5161010101 -0.8561255803 -0.2701424552 0.4335027593 -0.8597083293 -0.2701535174 0.4335136408 -0.8596993662 0.0262013453 -0.5158979793 -0.8562492420 -0.2701633065 0.4335232696 -0.8596914345 -0.0446711053 -0.9394468303 0.3397707247 0.2936590718 -0.0831411017 0.9522877227 0.0259659974 -0.5155955950 -0.8564385263 0.0247852209 -0.5155652233 -0.8564917941 -0.2804152693 -0.8440936275 0.4570265035 -0.8402338186 0.5379742001 0.0677561081 0.1479377308 0.2317669933 0.9614564414 -0.7528431792 0.5252532952 -0.3966561779 -0.2162684543 -0.6844005350 -0.6962929436 -0.0670756529 -0.1814934563 -0.9811019224 -0.7879916151 0.4524523815 0.4175596449 -0.6013825856 0.5247113665 -0.6025088942 0.4259239279 -0.5065406334 -0.7496701904 0.0507116829 -0.0521518643 -0.9973507449 0.9702052529 0.1766121686 -0.1658611143 0.9785461979 -0.0514494147 -0.1995001162 0.8739044650 -0.4623902515 -0.1499541310 0.2212237856 0.9433846797 0.2471545725 -0.5645092732 -0.2650670907 0.7817088447 -0.5610823598 -0.2692708493 0.7827386506 0.3053232393 -0.4244299308 -0.8524300284 0.6698317731 -0.6761665068 -0.3067967582 0.2241181820 0.4493256592 0.8647991053 0.2832309529 0.4688466728 0.8366379293 -0.5363116620 0.5066663231 0.6750252130 0.2263941537 0.4946250806 0.8391017321 -0.1698225314 -0.5098816630 -0.8433154793 -0.5104977148 0.5773276560 0.6372478802 0.2460940459 0.4881223740 0.8373614922 -0.1860166538 -0.4905334963 -0.8513370035 -0.0764464333 -0.4671563748 -0.8808637036 0.8692219132 0.1614481089 0.4673197767 0.2446371215 -0.6967473061 0.6743114045 -0.3082063479 0.8190741098 0.4838661486 0.4175920416 0.7667608630 0.4875393992 0.1097689300 0.7011634917 -0.7045002058 -0.0606189688 0.9353481655 0.3484955522 0.1969161152 0.6529546919 -0.7313509513 0.1742335265 0.6461792896 -0.7430309576 -0.4184935151 0.5498358969 -0.7228718173 -0.4126231964 0.5879861394 -0.6957114327 -0.0738588249 -0.6148417005 0.7851844097 -0.0753657514 -0.6051539732 0.7925330733 -0.5091253921 0.7117016174 -0.4840166763 0.1835816303 0.9626941843 0.1987905747 -0.7232146985 -0.6792730086 -0.1246943449 0.4904213477 -0.6824912747 -0.5419340935 -0.4965507508 0.7403201337 -0.4531704442 -0.2681204367 0.4561123646 -0.8485711180 -0.3860246098 0.3683304002 -0.8457645754 -0.4946316998 0.8297311311 -0.2586227593 -0.8354322135 -0.5474890135 0.0480499402 -0.3826108850 0.4652537401 -0.7982154270 -0.7891401977 0.3828531909 0.4802928091 0.6649559100 0.6724037220 0.3251259332 -0.1164485418 0.1560182876 -0.9808659598 -0.9238846549 0.2618856157 0.2790216277 -0.5899964972 -0.7244928875 -0.3563905011 0.5532413935 -0.6923592894 0.4632089971 -0.1811848346 0.1758833753 -0.9675934549 0.0251146407 -0.2575864210 -0.9659288227 0.3227337817 -0.2941398516 -0.8996247294 0.5345257859 -0.6259689464 -0.5678424626 0.8917452513 -0.1108132420 -0.4387605636 0.4305627025 -0.4606383579 0.7761623944 0.4305005528 -0.4607325463 0.7761409633 0.4354531318 -0.0713307737 -0.8973809061 0.6525619891 0.3103412854 0.6912677752 -0.2081020517 -0.8624908857 -0.4613057644 -0.1591470559 -0.8771290351 -0.4531190466 -0.2175288048 0.5193258298 -0.8264271908 -0.2246643811 0.5126922005 -0.8286571205 0.4710670392 -0.3249678173 0.8200559507 0.7517642643 -0.6362419942 -0.1733395964 0.7055905103 -0.1277192533 0.6970149383 0.3853220971 0.6494402897 0.6555563985 0.2545070655 0.6897142091 0.6778793870 -0.4285872605 -0.2370964714 0.8718361219 0.6237955085 0.2090584692 -0.7531093679 -0.0578651496 -0.4417437538 -0.8952731876 0.6171349213 -0.1788289253 0.7662667319 0.2838559926 0.0525474011 0.9574260003 0.0671092769 0.8944888427 -0.4420249486 -0.5451265856 -0.0240161757 -0.8380096831 -0.4392297824 0.1953910332 -0.8768691706 0.9451914759 0.1478401147 -0.2911294803 0.1581783413 0.3631583086 -0.9182024043 0.1517305075 0.2481695602 -0.9567600130 0.3234011180 -0.4924587385 0.8080198684 -0.4432184034 0.1535914199 -0.8831574733 -0.3909938150 0.1356017712 -0.9103493814 -0.3877607240 -0.5308684573 0.7535385206 0.4982463403 -0.6856170742 -0.5307351618 0.5019065362 -0.6848822041 -0.5282293019 0.4989462201 -0.6850608140 -0.5307959595 0.5024000530 -0.6844316776 -0.5283440786 0.5026433525 -0.6843634902 -0.5282009783 0.5029580071 -0.6843058033 -0.5279761459 0.5065412885 -0.6833674724 -0.5257611822 -0.2450297508 0.9414170537 -0.2317204183 -0.3160382790 0.9210486421 0.2275724173 -0.5204798140 -0.7467239061 0.4141306211 0.0240139725 0.4475442074 -0.8939393221 0.0227244972 0.4330043751 -0.9011053259 0.2004028389 -0.6884041588 -0.6970928319 -0.6477921879 -0.4410184917 -0.6211827197 0.2849234916 0.3808671378 0.8796356219 0.2716786882 0.3552108658 0.8944360968 0.1730932638 0.8429666750 -0.5093583286 -0.5815882377 0.8133996205 0.0116695800 -0.5640289395 -0.8220951181 -0.0776593350 -0.0194404324 -0.7020472177 0.7118649968 -0.0194735469 -0.7020664659 0.7118451084 0.0162374003 -0.6803875074 0.7326726327 -0.0187530792 -0.7030438248 0.7108992210 0.0157917619 -0.6800345712 0.7330099605 -0.0189486141 -0.7032012764 0.7107382886 0.0159625207 -0.6799378101 0.7330960185 0.0130814856 -0.6781314393 0.7348242142 0.5028897758 0.8170593200 -0.2819857104 0.4396959828 0.8507765118 -0.2878311479 0.4431707643 0.8438891718 -0.3024082329 0.1753409396 0.5456330279 0.8194755358 -0.0552480016 -0.7126157822 0.6993757254 -0.0552573292 -0.7125977920 0.6993933188 -0.0552876622 -0.7125923325 0.6993964842 -0.0552383345 -0.7126012234 0.6993913231 -0.0552532312 -0.7125985323 0.6993928883 -0.0518031861 0.3828535318 -0.9223554646 0.5094504935 -0.4636967224 0.7248762269 0.8936824120 -0.4134105202 0.1744233020 -0.6672127911 -0.7333976665 -0.1302111906 0.9052209633 -0.2914487583 -0.3092452568 0.8169289980 -0.4592433277 -0.3488876297 -0.2699784490 0.0108019957 0.9628057717 -0.2629018193 -0.0291757470 0.9643813609 -0.3746316220 -0.1642682285 0.9125059435 0.0148047522 -0.0592191741 -0.9981352157 0.1699621135 0.3017755957 0.9381068009 0.3752827390 0.7676413342 -0.5195090450 0.3992562989 0.7532669180 -0.5226694539 0.3764397569 0.2674556792 0.8869952475 0.0576357065 -0.1165095843 -0.9915158305 -0.0141166398 -0.0902525059 -0.9958188619 -0.8445243826 0.4379879818 -0.3081316196 -0.7172277995 0.0833452650 -0.6918365778 0.9748204428 -0.2207625863 0.0314481292 -0.6414809956 -0.6861776220 0.3430195379 0.0752138675 0.5411184066 -0.8375761125 0.0311071413 0.5282766559 -0.8485022809 -0.1925800006 -0.2637737955 0.9451647095 -0.1945890922 -0.3137950781 0.9293372553
        </DataArray>
        <DataArray type="Float32" Name="contact force" NumberOfComponents="3" format="ascii">