<?xml version="1.0"?>
<VTKFile type="UnstructuredGrid" version="0.1" byte_order="LittleEndian">
  <UnstructuredGrid>
    <FieldData>
      <DataArray type="Float32" Name="TIME"  NumberOfTuples="1" format="ascii"> 1.5500000000 </DataArray>
      <DataArray type="Int32"   Name="STEP"  NumberOfTuples="1" format="ascii"> 155000 </DataArray>
    </FieldData>
    <Piece NumberOfPoints="304" NumberOfCells="304">
      <Points>
        <DataArray type="Float32" NumberOfComponents="3" format="ascii">
 3.6991495235 0.1750006260 -3.5800227545 3.8146689932 0.1012629305 -3.5694384027 3.8199569886 0.1142734140 -3.5530924034 3.7658256357 0.1010779947 -3.6847091608 3.7777312410 0.0961462733 -3.6890143807 3.8762479554 0.0938431315 -3.7198117036 3.8717193951 0.3293364037 -3.5501071127 3.8833033885 0.3247099403 -3.5579615679 3.8849101364 0.4147489024 -3.5658132498 3.9789905006 0.1707742313 -3.7657902135 3.9866067786 0.1777106457 -3.7662226575 3.9451385346 0.4352893806 -3.6593840120 4.0260563410 0.2358246613 -3.8485097180 3.9234419564 0.3771956923 -3.8357277066 3.9333247147 0.3753980166 -3.8455522072 3.9526370688 0.3921326113 -3.8545638253 4.0724026407 0.3834020670 -3.7182142229 4.0833284817 0.3762127499 -3.7272949807 4.1007641053 0.3697861824 -3.8233316154 4.3510455433 0.2558868938 -3.3809920588 4.2987824784 0.3154260962 -3.4689295774 4.2990371948 0.3113322834 -3.4776726621 4.3868016475 0.5141059990 -3.5389018539 4.3877399758 0.5062219722 -3.5596733195 4.3828184408 0.2868783534 -3.5986756719 4.3836266165 0.3007043968 -3.6062149604 4.3410713414 0.4685853208 -3.6649148183 4.3341040363 0.4495695766 -3.6508079921 3.5363110620 0.7456064911 -3.3976741647 3.5463896419 0.7471865965 -3.3957438944 3.5500035669 0.7382791292 -3.4019174947 3.4746303080 0.8320848226 -3.2290467498 3.5114270504 0.6620987778 -3.3136225677 3.5946563013 0.7670427463 -3.3613114633 3.6009722131 0.7594156506 -3.3663714778 3.4971907938 0.7247869777 -3.1833545359 3.5047652968 0.7192012901 -3.1863643784 3.9241022036 0.7206708913 -3.4883665842 4.0154520245 0.7264909752 -3.5582567673 3.9218101554 0.7146636678 -3.6074340237 3.9257088180 0.7187496611 -3.6107581490 3.9205176235 0.7205968185 -3.6138902067 3.7849333561 0.7324993610 -3.5555855235 4.0206604755 0.8340167912 -3.6084879040 3.8586217632 0.8161612530 -3.5251478527 3.8533979052 0.8173280665 -3.5304086671 3.8616331265 0.8215942088 -3.5303795082 3.8569223827 0.8230189132 -3.5359661263 3.8527345486 0.8250196808 -3.5422335988 3.7793195239 0.3899464637 -3.1062609378 3.6181330631 0.5809884236 -3.1989006754 3.5954753845 0.6024831659 -3.1436877775 3.6334203993 0.5843610203 -3.2169575551 3.8556240338 0.4652054212 -3.1576368581 3.8632586360 0.4653202745 -3.1674100232 3.8741684143 0.4803311901 -3.1746970008 3.7644270226 0.3935143400 -3.3206578084 3.7224613262 0.6746784865 -3.0554921377 3.7218424024 0.7160286122 -3.2679998527 3.9421347745 0.4653135932 -3.2976716451 3.9498751504 0.4766462052 -3.2980795936 3.9296728467 0.7603033954 -3.1963365225 3.9410042126 0.7787677437 -3.2072108048 3.8578743059 0.8548898293 -3.3591305250 4.2454047170 0.2942162086 -3.4681650575 4.2513349846 0.2923838232 -3.4804444209 4.2296173474 0.1448562587 -3.4802562682 3.9328946986 0.0398947304 -3.6754128273 4.0481664047 0.2155238891 -3.6338935748 4.1294450825 0.3509050602 -3.6084876358 4.1401295645 0.3585850710 -3.6064005146 3.9686074084 0.2762374709 -3.5024976165 4.0398516177 0.1767800570 -3.3937522887 3.9321816351 0.2133042492 -3.4233942620 3.5309204839 0.3865432833 -3.4116004311 3.5257296056 0.3809306983 -3.4014597212 3.5189917920 0.3785101840 -3.3037770895 3.5217436343 0.4035777183 -3.2820715858 3.5274354302 0.4126065523 -3.2762080804 3.5242705244 0.4207321275 -3.2674983062 3.5298007650 0.4277268325 -3.2634900786 3.5266782223 0.4345864232 -3.2559006090 3.5290123804 0.4470815854 -3.2455299663 3.5258510653 0.4540513094 -3.2378437144 3.4870330919 0.5449580245 -3.3095845120 3.4915275053 0.5501285170 -3.3110088706 3.5448688005 0.5843989771 -3.1805213690 3.5403805560 0.5933925083 -3.1886191313 3.6148624648 0.3182694792 -3.2365197955 3.6756474321 0.2396102152 -3.3357667295 3.6715519912 0.2308638019 -3.3330437713 3.6812345260 0.2404309450 -3.3392946092 3.6657848200 0.2247210458 -3.3293115234 3.6775235898 0.2303518227 -3.3367799932 3.6863633768 0.2430504039 -3.3425631957 3.6912609299 0.2476225828 -3.3457194563 3.6961606106 0.2545756359 -3.3489129402 3.7013514063 0.2647492680 -3.3523247292 3.5602399756 0.2404132724 -3.1927127905 3.7080578720 0.2632610207 -3.3565265686 3.7688172530 0.2641550980 -3.2958097937 3.5909957831 0.1664128040 -3.1917871197 3.5471001457 0.0920248694 -3.2219959001 3.5603479429 0.0692290871 -3.2325122735 3.6377138233 -0.0134334437 -3.2237542428 3.7653620249 0.0629908190 -3.2817882877 3.7776094035 0.0827212497 -3.2894924233 3.7832648933 0.0929002900 -3.2930425295 3.7900116620 0.0979480680 -3.2973754004 4.2717275589 0.1630329099 -3.6411158718 4.2263103111 0.0838339969 -3.6491207923 4.3026012801 0.0984519004 -3.4590819896 3.8013695512 0.1567755099 -3.1257192927 3.8314387889 0.1800666689 -3.2321986745 3.7829523099 0.2626922726 -3.2323611368 4.1576551454 0.6771122009 -3.3475784099 4.1054458320 0.6093973391 -3.5029975750 4.2016421684 0.6666668391 -3.4853969225 4.1988751495 0.6696523939 -3.4911004306 4.2021135408 0.6758947873 -3.4889399682 4.1257905056 0.7409215404 -3.4995529040 3.8787891006 0.4817385551 -3.5354403019 3.9525662597 0.4867953539 -3.5370102589 3.9570196129 0.5058824914 -3.5312619037 3.9658256423 0.4990244796 -3.5414894055 3.8486910707 0.5449501510 -3.6675918489 3.8520178676 0.5591383144 -3.6675947060 3.8537846731 0.5724346694 -3.6658524512 3.8606535305 0.5573612886 -3.6779966370 3.8624806758 0.5705332961 -3.6761845342 3.8629662861 0.5831242269 -3.6729550771 3.8704525672 0.5804091246 -3.6824056111 3.8701307919 0.5925721832 -3.6780765422 4.0321094276 0.6338123933 -3.6061239136 4.0405801766 0.6368283126 -3.6123791114 4.0490328938 0.6398414720 -3.6186257846 4.0964944210 0.4605652722 -3.7048910715 4.1039378286 0.4711562055 -3.7071888355 4.0577900883 0.6430449445 -3.6251450371 4.1111424457 0.4814682102 -3.7095676270 3.9570613131 0.7304845868 -3.7144662801 3.9639396824 0.7429230197 -3.7143599172 4.0672486861 0.6466770523 -3.6322816130 3.9645660751 0.7295300802 -3.7240620283 4.0779972201 0.6510928732 -3.6405437805 4.0288340972 0.7561365576 -3.7100886247 4.1244828703 0.5519912034 -3.8068260993 4.0342483435 0.6286054974 -3.8305214239 4.1326719052 0.5589870633 -3.8017182054 4.0474065579 0.6418770153 -3.8421347282 4.1915613840 0.6695300446 -3.7352413273 3.6860350659 0.7050421447 -3.5824602341 3.6940722884 0.7062307451 -3.5865174275 3.6881516145 0.7152660651 -3.5876642554 3.6963378977 0.7161857958 -3.5913750809 3.6906219996 0.7262821595 -3.5932510476 3.7038717983 0.7168686929 -3.5950779539 3.6990273111 0.7269040732 -3.5970634573 3.7821802729 0.6105620759 -3.6885455408 3.7108718955 0.7178292425 -3.5984932728 3.7829770664 0.6181905342 -3.6818286223 3.7069320433 0.7276530730 -3.6006881778 3.7870974471 0.6218278526 -3.6907988299 3.7878703008 0.6288652667 -3.6845960915 3.7886413099 0.6354278665 -3.6791755112 3.7930409597 0.6408980122 -3.6878815454 3.9194548569 0.1019793424 -3.3192466484 3.9158901092 0.0050589744 -3.2575855831 3.7425457523 0.0975618620 -3.1866530232 3.8240082531 0.0419205377 -3.1770009014 3.8166568043 0.0448900264 -3.1724569156 3.7458734333 -0.0048343931 -3.1532415521 3.7369784888 0.0032215438 -3.1623481427 4.4138032481 0.4125965160 -3.5482822738 3.5747178927 0.1000446858 -3.4665034422 3.6513797923 0.0358710471 -3.4969133739 3.6688657403 0.1284805998 -3.5249617293 3.6728226377 0.1316488300 -3.5237814652 3.6895345441 0.1554383716 -3.4567500078 3.6983463854 0.1609697390 -3.4584544667 3.4851379885 0.8463478946 -3.1479172811 3.4949019896 0.8550971735 -3.1492870655 3.7910007095 0.4447758567 -3.5059764493 3.7878249861 0.4348090213 -3.5039970074 3.9069174202 0.3521935888 -3.4922109829 4.0017909442 0.5715063346 -3.8720207595 3.9940093838 0.5756632495 -3.8674560014 4.0908347263 0.0583469686 -3.6959971431 4.0675142538 0.0678557763 -3.6522590816 4.0775442556 0.0725782521 -3.6517697833 4.0709712696 0.0740457896 -3.6475062478 4.1625989268 0.1080583529 -3.7084473696 4.1711632876 0.1214423781 -3.7073492799 4.0332712318 0.1787339868 -3.7366602905 4.0381242308 0.1826299155 -3.7369927685 3.9694138876 0.1063891801 -3.2099983478 4.0278338855 0.2077215808 -3.2173008637 4.2768034800 0.5916322641 -3.7003761543 4.2423244428 0.5851310798 -3.6100352542 4.2452319464 0.4631719740 -3.6802156436 4.2408992829 0.4601708090 -3.6754802836 4.2403475551 0.4554602846 -3.6800229647 4.2364440535 0.4529020256 -3.6753808367 4.1903231428 0.3702598586 -3.7418496439 3.6331989063 0.8386874517 -3.4744396880 4.1675851307 0.6315270898 -3.5853530531 4.0717692500 0.5778413567 -3.5231659800 4.0641992828 0.5817023903 -3.5171009408 3.5965555532 0.8309945950 -3.1603637620 3.6035736318 0.8301156557 -3.1566808606 3.5479865500 0.2261698880 -3.4335774653 3.6298116315 0.2288767609 -3.5307649785 3.5829677662 0.3685278111 -3.4688694687 3.6815393033 0.0906636965 -3.1419744285 3.7167495099 0.1306758790 -3.1622329489 3.6214445386 0.2026924911 -3.1849059317 3.9839619136 -0.0195012412 -3.3280987638 3.9522986551 0.0023801233 -3.4308596047 4.0399187396 0.0016006035 -3.4545489995 3.8077351094 0.8300653720 -3.0804962737 3.6704081417 0.8676581133 -3.2027251875 4.0792299709 0.1226779571 -3.3369594688 4.0815950938 0.1214086360 -3.3422239081 3.9684459902 0.1250383699 -3.3505207796 4.1999727960 0.1583264560 -3.8187682339 4.2016127645 0.3130357429 -3.8303383119 3.6430180846 0.8224681607 -3.5296170216 3.6346027247 0.8303413254 -3.5264263252 3.7620480705 0.7824971817 -3.6104327041 3.7186983679 0.9047048767 -3.6077773316 4.0336582642 0.7412844450 -3.2259465362 4.0266872365 0.7414579101 -3.1490441875 4.0838128320 0.0876359545 -3.9010071271 3.6151608569 0.0250164206 -3.4247404591 3.5649858709 0.0076558585 -3.4497118981 3.5599642437 0.0059031811 -3.4536901485 3.5545954490 0.0133109590 -3.4493013908 3.5539772252 0.0048107302 -3.4573895288 3.7466130235 0.7139651111 -3.0294026046 3.7450542855 0.7118752074 -3.0280268453 3.8486487648 0.7826574901 -3.0765004224 3.6998533737 0.7557098654 -3.4197946617 3.7594191290 0.8796712852 -3.3862215565 3.7683178157 0.8810559896 -3.3981682876 3.7405162909 0.8573503746 -3.4149057507 3.4751829499 0.1540022683 -3.3542495568 3.5435521922 0.0822409000 -3.4294624302 4.1047485315 0.8835256107 -3.6152744244 4.1955549328 0.8723817148 -3.5635742119 4.0969023825 0.8862425832 -3.6064715433 4.1923530811 0.8509440951 -3.5623388292 3.7905150296 0.2221856861 -3.0168326885 4.2352947673 0.6382203558 -3.5310551128 4.2344897293 0.6445058924 -3.5360926191 4.2373360489 0.6492244549 -3.5389406232 4.2583879141 0.3580157739 -3.6635158153 4.0918421488 0.0353001208 -3.5820573402 4.0935127999 0.0299975361 -3.5888044371 4.1886742663 0.0224933670 -3.7447823610 4.1870150490 0.0151854428 -3.7385512636 4.2002040268 0.0084531352 -3.6974705092 4.1983847739 0.0112815041 -3.6878769585 3.6653691163 0.1056774252 -3.5834387296 3.7220627870 0.2797155019 -3.5419374133 4.1192636020 0.8430011177 -3.7281703981 4.1192939127 0.8515883560 -3.7275034575 4.0409620858 0.8774588845 -3.7031861344 4.0985853087 0.0119597733 -3.3823717604 3.5869267171 0.0714382834 -3.4026077681 3.9140789607 0.4362301398 -3.0848751685 3.7519667100 0.5505969551 -2.9706318761 4.0390693920 0.1069396210 -3.9364467018 4.0404021538 0.1147798084 -3.9269840001 4.0467134210 0.1174967147 -3.9283467509 4.0484078182 0.1224842037 -3.9229830261 4.0506919999 0.1264543875 -3.9194471550 4.0536675328 0.1297828032 -3.9173220156 4.0575480298 0.1326919608 -3.9164715048 4.0765726380 0.0191789236 -3.5146531936 4.0658172527 0.0172579352 -3.5080763697 4.0973496009 0.0252405141 -3.5246130833 4.1013349777 0.2846860533 -3.8970716187 4.4810766851 0.3114628163 -3.4799417537 3.5334128198 0.5774895533 -3.3774146091 3.5248198982 0.5649992504 -3.3797048024 3.6763287031 0.6090230531 -3.4074699173 3.6633291442 0.4815012218 -3.4988880099 3.7101966717 0.6855978107 -3.4577197028 3.7128365972 0.6821625154 -3.4589781328 3.7585120920 0.4546992744 -3.6156490003 3.7562232890 0.3913326851 -3.0625951521 3.6726161051 0.2664121720 -3.1192551226 3.7153564940 0.2446280909 -3.0646504750 3.6784705847 0.2574412328 -3.1220244708 3.5260983049 0.0160027874 -3.3347207315 3.8829444570 0.7494505742 -3.1170578234 3.9599633125 0.0082691406 -3.2699565444 3.9455469078 -0.0151567647 -3.2104006284 3.5766002804 0.3768606703 -3.2181494721 3.5702305070 0.3740740008 -3.2157655967 4.2567879835 0.8572224476 -3.5190255220 4.0788166255 -0.0472542917 -3.3731137574 3.8216768919 0.8736602232 -3.4451483229 3.8149087655 0.8675765642 -3.4445233332
        </DataArray>
      </Points>
      <Cells>
        <DataArray type="Int32" Name="connectivity" format="ascii">
 0 1 2 3 4 5 6 7 8 9 10 11 12 13 14 15 16 17 18 19 20 21 22 23 24 25 26 27 28 29 30 31 32 33 34 35 36 37 38 39 40 41 42 43 44 45 46 47 48 49 50 51 52 53 54 55 56 57 58 59 60 61 62 63 64 65 66 67 68 69 70 71 72 73 74 75 76 77 78 79 80 81 82 83 84 85 86 87 88 89 90 91 92 93 94 95 96 97 98 99 100 101 102 103 104 105 106 107 108 109 110 111 112 113 114 115 116 117 118 119 120 121 122 123 124 125 126 127 128 129 130 131 132 133 134 135 136 137 138 139 140 141 142 143 144 145 146 147 148 149 150 151 152 153 154 155 156 157 158 159 160 161 162 163 164 165 166 167 168 169 170 171 172 173 174 175 176 177 178 179 180 181 182 183 184 185 186 187 188 189 190 191 192 193 194 195 196 197 198 199 200 201 202 203 204 205 206 207 208 209 210 211 212 213 214 215 216 217 218 219 220 221 222 223 224 225 226 227 228 229 230 231 232 233 234 235 236 237 238 239 240 241 242 243 244 245 246 247 248 249 250 251 252 253 254 255 256 257 258 259 260 261 262 263 264 265 266 267 268 269 270 271 272 273 274 275 276 277 278 279 280 281 282 283 284 285 286 287 288 289 290 291 292 293 294 295 296 297 298 299 300 301 302 303
        </DataArray>
        <DataArray type="Int32" Name="offsets" format="ascii">
 1 2 3 4 5 6 7 8 9 10 11 12 13 14 15 16 17 18 19 20 21 22 23 24 25 26 27 28 29 30 31 32 33 34 35 36 37 38 39 40 41 42 43 44 45 46 47 48 49 50 51 52 53 54 55 56 57 58 59 60 61 62 63 64 65 66 67 68 69 70 71 72 73 74 75 76 77 78 79 80 81 82 83 84 85 86 87 88 89 90 91 92 93 94 95 96 97 98 99 100 101 102 103 104 105 106 107 108 109 110 111 112 113 114 115 116 117 118 119 120 121 122 123 124 125 126 127 128 129 130 131 132 133 134 135 136 137 138 139 140 141 142 143 144 145 146 147 148 149 150 151 152 153 154 155 156 157 158 159 160 161 162 163 164 165 166 167 168 169 170 171 172 173 174 175 176 177 178 179 180 181 182 183 184 185 186 187 188 189 190 191 192 193 194 195 196 197 198 199 200 201 202 203 204 205 206 207 208 209 210 211 212 213 214 215 216 217 218 219 220 221 222 223 224 225 226 227 228 229 230 231 232 233 234 235 236 237 238 239 240 241 242 243 244 245 246 247 248 249 250 251 252 253 254 255 256 257 258 259 260 261 262 263 264 265 266 267 268 269 270 271 272 273 274 275 276 277 278 279 280 281 282 283 284 285 286 287 288 289 290 291 292 293 294 295 296 297 298 299 300 301 302 303 304
        </DataArray>
        <DataArray type="UInt8" Name="types" format="ascii">
 1 1 1 1 1 1 1 1 1 1 1 1 1 1 1 1 1 1 1 1 1 1 1 1 1 1 1 1 1 1 1 1 1 1 1 1 1 1 1 1 1 1 1 1 1 1 1 1 1 1 1 1 1 1 1 1 1 1 1 1 1 1 1 1 1 1 1 1 1 1 1 1 1 1 1 1 1 1 1 1 1 1 1 1 1 1 1 1 1 1 1 1 1 1 1 1 1 1 1 1 1 1 1 1 1 1 1 1 1 1 1 1 1 1 1 1 1 1 1 1 1 1 1 1 1 1 1 1 1 1 1 1 1 1 1 1 1 1 1 1 1 1 1 1 1 1 1 1 1 1 1 1 1 1 1 1 1 1 1 1 1 1 1 1 1 1 1 1 1 1 1 1 1 1 1 1 1 1 1 1 1 1 1 1 1 1 1 1 1 1 1 1 1 1 1 1 1 1 1 1 1 1 1 1 1 1 1 1 1 1 1 1 1 1 1 1 1 1 1 1 1 1 1 1 1 1 1 1 1 1 1 1 1 1 1 1 1 1 1 1 1 1 1 1 1 1 1 1 1 1 1 1 1 1 1 1 1 1 1 1 1 1 1 1 1 1 1 1 1 1 1 1 1 1 1 1 1 1 1 1 1 1 1 1 1 1 1 1 1 1 1 1 1 1 1 1 1 1 1 1 1 1 1 1
        </DataArray>
      </Cells>
      <PointData Scalars="overlap">
        <DataArray type="Float32" Name="overlap" format="ascii">
 0.0001316143 0.0003579496 0.0000466153 0.0006077165 0.0004395676 0.0000486948 0.0000901391 0.0000535499 0.0001384644 0.0000540266 0.0002477219 0.0003053888 0.0000060485 0.0000521524 0.0000259118 0.0003323926 0.0000001076 0.0002183992 0.0000938275 0.0001000292 0.0003430282 0.0002136730 0.0002948693 0.0001369934 0.0002907219 0.0002329551 0.0001269287 0.0004595483 0.0000419101 0.0001072066 0.0000129054 0.0002132750 0.0001725614 0.0000034853 0.0000063405 0.0000866882 0.0000824569 0.0001026699 0.0002556337 0.0002073203 0.0005371204 0.0000278990 0.0002040823 0.0000746647 0.0001147300 0.0001622323 0.0001951420 0.0003625863 0.0001415669 0.0000709069 0.0002382984 0.0000217599 0.0000018693 0.0000236930 0.0000007652 0.0000803416 0.0003278755 0.0000873945 0.0000652803 0.0001285802 0.0000325824 0.0000017665 0.0000411590 0.0002268659 0.0000200619 0.0000943971 0.0000039153 0.0000232995 0.0001695386 0.0000743600 0.0000897763 0.0001816674 0.0000601185 0.0001096389 0.0000682198 0.0000409164 0.0000032671 0.0000393738 0.0000471422 0.0000523660 0.0000138486 0.0000415048 0.0000060069 0.0000065612 0.0001054900 0.0000775953 0.0000326783 0.0000468001 0.0000149901 0.0000481451 0.0000349050 0.0000718966 0.0000103116 0.0000328260 0.0000865712 0.0001023029 0.0001157526 0.0001000079 0.0000397902 0.0001189686 0.0000406832 0.0000507898 0.0000272832 0.0000501865 0.0000245304 0.0000128718 0.0000976470 0.0000522536 0.0000239120 0.0000119940 0.0000226817 0.0000762648 0.0000068588 0.0000217054 0.0000172905 0.0001916335 0.0000575955 0.0000598318 0.0001957598 0.0000256320 0.0002871300 0.0001966299 0.0003286199 0.0002446133 0.0001556216 0.0002330922 0.0005825058 0.0004106200 0.0000923406 0.0005762081 0.0004870392 0.0000893108 0.0002438274 0.0000278486 0.0000462800 0.0000551447 0.0002174472 0.0003298555 0.0000601894 0.0002511925 0.0002012918 0.0000102158 0.0000638944 0.0000314083 0.0000573329 0.0000264890 0.0000182402 0.0000409664 0.0001636197 0.0002958637 0.0001596190 0.0000188260 0.0002761856 0.0002585810 0.0001638465 0.0001121777 0.0004436585 0.0003972680 0.0002079494 0.0000945561 0.0003879282 0.0002006963 0.0003274382 0.0006204552 0.0001843286 0.0002237417 0.0000223644 0.0000713396 0.0000908677 0.0000039856 0.0000199078 0.0000743046 0.0000054477 0.0000133993 0.0000155254 0.0000071779 0.0000097575 0.0000038220 0.0000026706 0.0000086367 0.0000119422 0.0000314084 0.0000201190 0.0000145003 0.0000244857 0.0001224713 0.0000843177 0.0000591500 0.0000208086 0.0000306555 0.0000859321 0.0000357086 0.0000044167 0.0002155335 0.0000388548 0.0001951915 0.0000081877 0.0000539191 0.0000192743 0.0000114931 0.0001600867 0.0001248562 0.0001562025 0.0000995896 0.0000231182 0.0000534250 0.0000075162 0.0000250882 0.0000484473 0.0000549256 0.0002130419 0.0000914331 0.0001419207 0.0000050502 0.0000327206 0.0000034159 0.0000049135 0.0000204537 0.0000048012 0.0000043943 0.0000056758 0.0000572236 0.0000340000 0.0000365970 0.0000010279 0.0000200707 0.0001201835 0.0000813306 0.0001046472 0.0000064246 0.0000424687 0.0000498048 0.0000122924 0.0002211027 0.0000155855 0.0001249861 0.0000379358 0.0000793554 0.0000139014 0.0000064946 0.0000441571 0.0001015799 0.0000539829 0.0000435095 0.0001258820 0.0000415042 0.0000738161 0.0001388142 0.0000003578 0.0000205713 0.0000488938 0.0000528706 0.0000023823 0.0000169400 0.0000190055 0.0000499944 0.0000852129 0.0000322385 0.0000282922 0.0000027841 0.0000183708 0.0000493343 0.0000082171 0.0000088444 0.0000477711 0.0000200290 0.0000061019 0.0000128466 0.0000603172 0.0000310535 0.0000173197 0.0000510764 0.0000014693 0.0000783100 0.0000413981 0.0000189735 0.0000150836 0.0000239083 0.0000276942 0.0000120372 0.0000283860 0.0000337214 0.0000085891 0.0000651005 0.0000204203 0.0000507102 0.0000122592 0.0000135734 0.0000115260 0.0000250198 0.0000237456 0.0000224356 0.0000130215 0.0000171926 0.0000892316 0.0000010246 0.0000300574 0.0000682005 0.0000174335 0.0000226146 0.0000103247 0.0000809776 0.0000104238 0.0000568419
        </DataArray>
        <DataArray type="Float32" Name="contact normal" NumberOfComponents="3" format="ascii">