<?xml version="1.0"?>
<VTKFile type="UnstructuredGrid" version="0.1" byte_order="LittleEndian">
  <UnstructuredGrid>
    <FieldData>
      <DataArray type="Float32" Name="TIME"  NumberOfTuples="1" format="ascii"> 1.0500000000 </DataArray>
      <DataArray type="Int32"   Name="STEP"  NumberOfTuples="1" format="ascii"> 105000 </DataArray>
    </FieldData>
    <Piece NumberOfPoints="288" NumberOfCells="288">
      <Points>
        <DataArray type="Float32" NumberOfComponents="3" format="ascii">
 1.7439188863 0.1920295301 -1.6242735338 1.8622148889 0.1278867208 -1.5942590697 1.8083857761 0.1118139466 -1.7257357948 1.8734171015 0.1254147176 -1.6113601957 1.8200886376 0.1062415105 -1.7297951226 1.9187105626 0.0992704464 -1.7596991782 1.9219597745 0.3408456358 -1.5987440117 1.9334098899 0.3355066314 -1.6063387497 1.9384287212 0.4250748871 -1.6174585277 2.0245366022 0.1705880478 -1.8076906667 2.0324097539 0.1772157506 -1.8083193418 1.9999492457 0.4399118229 -1.7112672787 1.9771679268 0.3762169747 -1.8855258303 1.9870345009 0.3736944452 -1.8952061246 2.0070116518 0.3893601350 -1.9046812332 2.1255361642 0.3812077827 -1.7672201974 2.1362383312 0.3732882505 -1.7759535675 2.1540106193 0.3626938478 -1.8715622061 2.3971907002 0.2560975591 -1.4234473177 2.3477162820 0.3142179983 -1.5139128922 2.3478805111 0.3097926280 -1.5224934701 2.4434932427 0.5067506443 -1.5905306450 2.4442728946 0.4980705530 -1.6109882879 2.4314214985 0.2777604266 -1.6418874176 2.4327894922 0.2912553467 -1.6499249582 2.3968820417 0.4582993538 -1.7151069287 2.3891273446 0.4400927803 -1.7003570888 1.6111326962 0.7757765657 -1.4622790969 1.6144260249 0.7665306810 -1.4681251909 1.5420357088 0.8695189378 -1.2992450592 1.5725509551 0.6952792718 -1.3773192057 1.5786472542 0.6908469414 -1.3777666821 1.6660254189 0.7869557708 -1.4330811487 1.5601874872 0.7631604365 -1.2495074492 1.5675507903 0.7571791473 -1.2522690025 1.9885495166 0.7320093986 -1.5509286344 2.0805045980 0.7318165835 -1.6202775624 1.9867846820 0.7216638097 -1.6696945759 1.9908547202 0.7254754819 -1.6731373731 1.9857547322 0.7273978516 -1.6763742680 1.8503370422 0.7464850999 -1.6196059514 2.0900374501 0.8371405811 -1.6744134773 1.9269246029 0.8284301452 -1.5917107547 1.9217806202 0.8295949342 -1.5970501402 1.9301685628 0.8335513831 -1.5971149268 1.9255488973 0.8349425163 -1.6027854830 1.9214774836 0.8368643323 -1.6091534257 1.7500397433 0.4291969421 -1.2454044625 1.8291943088 0.4211103523 -1.1581084632 1.6758242409 0.6144670436 -1.2588583741 1.6536476137 0.6388035193 -1.2046371990 1.6913370964 0.6166040511 -1.2769114855 1.9085608585 0.4915473714 -1.2116339000 1.9162562908 0.4910182764 -1.2213456620 1.9213412551 0.5068130239 -1.2205787897 1.9277658468 0.5053350882 -1.2290924664 1.8157505170 0.4173454323 -1.3725926561 1.7827072480 0.7094305516 -1.1181917635 1.7849241595 0.7429341643 -1.3320686716 1.9958838823 0.4832882706 -1.3509216926 2.0040445477 0.4942979121 -1.3516906438 1.9938205237 0.7820672692 -1.2605307194 2.0059129445 0.7996901092 -1.2719649275 1.9266013149 0.8732050853 -1.4271938403 2.2936050298 0.2947662281 -1.5130642118 2.2995776882 0.2923665409 -1.5252247539 2.2725174936 0.1458060752 -1.5210383289 2.0944830063 0.2175156872 -1.6769946367 2.1806220455 0.3506203602 -1.6559822898 2.1915746594 0.3579589802 -1.6540913283 2.0164750998 0.2859295358 -1.5485025606 2.0832998343 0.1879620807 -1.4356796598 1.9772576006 0.2273527585 -1.4674215716 1.5827129923 0.4156995913 -1.4649665987 1.5772563587 0.4106700540 -1.4546667480 1.5733870418 0.4378216031 -1.3362078171 1.5793757868 0.4468420045 -1.3306344515 1.5764630588 0.4553942013 -1.3222514096 1.5822260259 0.4623211219 -1.3184591441 1.5793150485 0.4695662785 -1.3111490006 1.5791041339 0.4896988601 -1.2938212129 1.5466846452 0.5758868945 -1.3755899694 1.5441482973 0.5792857848 -1.3691179899 1.5488408061 0.5842306443 -1.3706965379 1.6026227745 0.6212752916 -1.2411505498 1.5985215450 0.6301205103 -1.2496063586 1.6629684668 0.3508763536 -1.2868775886 1.7213673739 0.2664086675 -1.3827221752 1.7169306778 0.2579269755 -1.3797116069 1.7270025697 0.2668903833 -1.3862361035 1.7109148923 0.2521447640 -1.3758001148 1.7229014302 0.2570558254 -1.3833821236 1.7322456741 0.2691949667 -1.3895601222 1.7373301302 0.2734623371 -1.3928450419 1.7425061444 0.2801058652 -1.3962542320 1.7480950558 0.2899466774 -1.3999972139 1.6051944055 0.2767712495 -1.2406696282 1.7547663775 0.2880560973 -1.4040918687 1.8151452652 0.2889226063 -1.3429975265 1.8230078421 0.2855893038 -1.3467938594 1.6331574005 0.2017652851 -1.2367950423 1.5866851418 0.1279981286 -1.2645934895 1.5991346603 0.1043541861 -1.2741696938 1.6732977405 0.0192453671 -1.2618116273 1.8040709075 0.0886794297 -1.3216516858 1.8170956071 0.1076431959 -1.3299808063 1.8231503944 0.1174669573 -1.3338580977 1.8301073142 0.1220971761 -1.3383229467 2.3160274982 0.1565550502 -1.6806650241 2.2677138307 0.0788672297 -1.6861019200 2.3433570063 0.0976124976 -1.4961837243 1.8739702399 0.2047187058 -1.2757245490 1.9505110011 0.2103767876 -1.2219368111 1.8282722567 0.2888441604 -1.2791448000 2.2191303020 0.6850450538 -1.4069979358 2.1661767949 0.6130352982 -1.5602065937 2.2806939487 0.8061759540 -1.4402318783 2.2639497806 0.6678906383 -1.5438817542 2.2574934908 0.6641849946 -1.5519767583 2.2613210113 0.6707400966 -1.5497182977 2.2647504007 0.6769515832 -1.5477786050 2.1858823577 0.7433572517 -1.5558228828 2.1906278405 0.7438334935 -1.5616106358 2.1964840582 0.7455505086 -1.5673630343 1.9346535867 0.4933187115 -1.5895734812 2.0085686598 0.4955631167 -1.5907925718 2.0137027736 0.5146768371 -1.5857130673 2.0223060452 0.5071264097 -1.5956211632 1.9077167166 0.5527029521 -1.7241602161 1.9115902810 0.5667423309 -1.7246417059 1.9138664327 0.5800136062 -1.7233469340 1.9201674987 0.5642792192 -1.7349459051 1.9224988789 0.5774241692 -1.7335856476 1.9234669799 0.5900900422 -1.7307863784 1.9308557484 0.5867672045 -1.7401145066 1.9310001309 0.5990739631 -1.7362042309 2.0939639294 0.6368890071 -1.6646427085 2.1025789551 0.6393572956 -1.6709407899 2.1111758067 0.6418238073 -1.6772303844 2.1524109089 0.4578596743 -1.7565506031 2.1602584016 0.4680753183 -1.7591791704 2.1200856735 0.6444590913 -1.6837970392 2.1678573287 0.4780183122 -1.7618802415 2.0232034190 0.7323273935 -1.7770097487 2.0305626638 0.7444071984 -1.7772774094 2.1297161817 0.6474737890 -1.6909909970 2.0307676561 0.7305535618 -1.7864588573 2.1406717845 0.6511820469 -1.6993287374 2.0958774099 0.7553513649 -1.7730222941 2.0972317926 0.6233677565 -1.8886776083 2.1928194686 0.5512423542 -1.8566451253 2.1109465214 0.6357064274 -1.9006700997 2.2554087835 0.6618891357 -1.7938154482 1.7581518226 0.7417687745 -1.6603238113 1.7665145404 0.7417857822 -1.6642629012 1.8450826732 0.6258437816 -1.7443505368 1.7743900449 0.7419551868 -1.6680451160 1.7818795471 0.7424069468 -1.6718542561 1.8504225931 0.6361586306 -1.7476111799 1.7891656644 0.7432691057 -1.6758420924 1.8514898198 0.6429231932 -1.7425023554 1.8561246417 0.6477833664 -1.7514442680 1.8575312215 0.6546538079 -1.7472109536 1.9597647363 0.1205064263 -1.3593841332 1.9522108487 0.0261134085 -1.2942668360 1.7820255360 0.1275197597 -1.2280259804 1.8612943953 0.0692857162 -1.2157558238 1.8540315015 0.0726905693 -1.2113778318 1.7813271622 0.0263642023 -1.1908837178 1.7727938993 0.0344050849 -1.2003429192 1.6903103728 0.0579511002 -1.5365465805 1.7082621951 0.1510811202 -1.5670330601 1.7116978124 0.1486834905 -1.5678032626 1.7323654979 0.2351554117 -1.1003841630 1.5621313333 0.8944269683 -1.2200236078 1.8453391313 0.4607511791 -1.5594702409 1.8417830407 0.4509875549 -1.5571522939 1.9576244939 0.3644923911 -1.5414675233 2.0629409371 0.5660207144 -1.9283271877 2.0552922537 0.5706255190 -1.9239724520 2.1316874028 0.0567283567 -1.7330085794 2.1084758932 0.0686960355 -1.6898220637 2.1186721197 0.0730587189 -1.6894315967 2.1121329379 0.0749240808 -1.6852727562 2.2053253457 0.1032594621 -1.7467437854 2.0788830799 0.1775771503 -1.7784641197 2.0838799687 0.1812756542 -1.7789026295 2.0105414257 0.1273251530 -1.2484545540 2.3374554622 0.5822060263 -1.7555083255 2.3022090155 0.5803346735 -1.6652407133 2.3009857951 0.4558346454 -1.7308806505 2.2965146829 0.4531732465 -1.7260733378 2.2958165205 0.4483218628 -1.7304410398 2.2917937519 0.4460836586 -1.7257370571 2.2463708370 0.3696287921 -1.7983476240 2.2430121943 0.3628147411 -1.7894731241 2.2291394056 0.6303333123 -1.6428051293 2.1310102484 0.5825447339 -1.5794291209 2.1235531820 0.5869026633 -1.5735641445 1.6633881486 0.8663596239 -1.2296299977 1.6703459578 0.8653557174 -1.2258655718 1.5938663708 0.2540966647 -1.4808389898 1.6762156114 0.2500726395 -1.5775410208 1.6342797566 0.3935485635 -1.5211862581 1.6322292899 0.3948259382 -1.5288987518 1.6386877650 0.3891657979 -1.5300495425 1.7205240558 0.1245543744 -1.1835838475 1.7573435622 0.1624452488 -1.2050324100 1.6649636380 0.2370911678 -1.2310396567 2.0193529155 0.0032404360 -1.3569855666 1.9904270976 0.0225570780 -1.4610624316 2.0774559329 0.0098336339 -1.4876017927 1.7388046579 0.8986765393 -1.2727527942 2.1025709179 0.2034485439 -1.3454911739 2.1180541607 0.1363166588 -1.3718136421 2.1153133122 0.1309977097 -1.3729018875 2.0097750805 0.1405857383 -1.3911263187 2.2488624742 0.1531754107 -1.8709994021 2.1716974828 0.6901407326 -1.3786022005 1.8381962376 0.7833058628 -1.6840373550 1.8192820217 0.9003418472 -1.6936673549 1.8099016096 0.9145706625 -1.6951351740 2.0972079082 0.7581311352 -1.2886432501 2.0897880436 0.7613692001 -1.2118499442 2.0970433506 0.7905704830 -1.2181595223 1.8462118757 0.9062758538 -1.5864672406 1.8596907910 0.9066552547 -1.5921593649 1.6539088125 0.0509886734 -1.4642656134 1.6037137517 0.0333099226 -1.4888994494 1.5986454870 0.0313735804 -1.4927319931 1.5934162492 0.0391774044 -1.4888858345 1.9128662157 0.8117344094 -1.1422062417 1.7653692603 0.7778127068 -1.4853930958 1.8293069591 0.9006262034 -1.4559042381 1.8383265402 0.9012434627 -1.4678258655 1.8097629671 0.8779861739 -1.4838925366 1.5840571552 0.1107283202 -1.4715937474 2.1759454175 0.8832347522 -1.6823774766 2.2659533661 0.8705710590 -1.6296504293 2.1681570167 0.8865642166 -1.6737378882 2.2619379608 0.8493285704 -1.6276542288 2.2961825649 0.6426433742 -1.5935628381 2.2992203923 0.6471439641 -1.5965617705 2.3101285611 0.3509557309 -1.7102359866 2.1311452211 0.0378607177 -1.6182965947 2.1326578186 0.0322557371 -1.6248327958 2.1278598214 0.0283610865 -1.7049881624 2.2284017136 0.0154870302 -1.7797138875 2.2390925922 0.0027831817 -1.7318251379 2.2373179990 0.0060294782 -1.7223564948 1.7076086257 0.1239647806 -1.6254189801 2.1896020658 0.8380741211 -1.7935526923 2.1899565979 0.8466747461 -1.7932008430 2.1139456160 0.8738668499 -1.7746244699 2.1124884092 0.8763099334 -1.7704619197 2.1110846550 0.8788389429 -1.7662139258 2.1144665290 0.8820616916 -1.7650732532 2.1131144381 0.8851115055 -1.7602533360 1.6268292574 0.0993213509 -1.4440122105 1.9653992297 0.4631207786 -1.1374214527 1.8068147623 0.5875451506 -1.0285570053 2.0832369242 0.0983852572 -1.9754791994 2.0912219938 0.1089364900 -1.9677073085 2.0930690343 0.1140492129 -1.9625146077 2.1025462690 0.1241374969 -1.9563057002 2.1148658920 0.0248084346 -1.5504621049 2.1040058988 0.0235342616 -1.5438993251 2.1359167416 0.0297176011 -1.5604810854 1.5921370392 0.6075839876 -1.4377476148 1.5831009479 0.5953449766 -1.4396475416 1.7363174842 0.6326532619 -1.4678826770 1.7191042686 0.5024285988 -1.5546661187 1.8138981666 0.4677824549 -1.6696639678 1.8227487892 0.4216253782 -1.1205792902 1.8058338403 0.4250945169 -1.1147616433 1.7179208978 0.3013558684 -1.1673396688 1.7593148066 0.2801158614 -1.1115188092 1.7621794320 0.2753530968 -1.1159280686 1.7234513467 0.2920659484 -1.1696969084 1.5636159789 0.0486343065 -1.3745625860 1.9964539455 0.0272667207 -1.3063870016 1.9808375390 0.0065806189 -1.2461220464 1.9789526756 0.0048001833 -1.2406316959 1.6267946715 0.4114463752 -1.2709303511 1.6203105101 0.4089884848 -1.2684933303 2.1137406785 -0.0364082399 -1.4065724636 1.8916618173 0.8901274630 -1.5141049870 1.8846670647 0.8843266600 -1.5133096477
        </DataArray>
      </Points>
      <Cells>
        <DataArray type="Int32" Name="connectivity" format="ascii">
 0 1 2 3 4 5 6 7 8 9 10 11 12 13 14 15 16 17 18 19 20 21 22 23 24 25 26 27 28 29 30 31 32 33 34 35 36 37 38 39 40 41 42 43 44 45 46 47 48 49 50 51 52 53 54 55 56 57 58 59 60 61 62 63 64 65 66 67 68 69 70 71 72 73 74 75 76 77 78 79 80 81 82 83 84 85 86 87 88 89 90 91 92 93 94 95 96 97 98 99 100 101 102 103 104 105 106 107 108 109 110 111 112 113 114 115 116 117 118 119 120 121 122 123 124 125 126 127 128 129 130 131 132 133 134 135 136 137 138 139 140 141 142 143 144 145 146 147 148 149 150 151 152 153 154 155 156 157 158 159 160 161 162 163 164 165 166 167 168 169 170 171 172 173 174 175 176 177 178 179 180 181 182 183 184 185 186 187 188 189 190 191 192 193 194 195 196 197 198 199 200 201 202 203 204 205 206 207 208 209 210 211 212 213 214 215 216 217 218 219 220 221 222 223 224 225 226 227 228 229 230 231 232 233 234 235 236 237 238 239 240 241 242 243 244 245 246 247 248 249 250 251 252 253 254 255 256 257 258 259 260 261 262 263 264 265 266 267 268 269 270 271 272 273 274 275 276 277 278 279 280 281 282 283 284 285 286 287
        </DataArray>
        <DataArray type="Int32" Name="offsets" format="ascii">
 1 2 3 4 5 6 7 8 9 10 11 12 13 14 15 16 17 18 19 20 21 22 23 24 25 26 27 28 29 30 31 32 33 34 35 36 37 38 39 40 41 42 43 44 45 46 47 48 49 50 51 52 53 54 55 56 57 58 59 60 61 62 63 64 65 66 67 68 69 70 71 72 73 74 75 76 77 78 79 80 81 82 83 84 85 86 87 88 89 90 91 92 93 94 95 96 97 98 99 100 101 102 103 104 105 106 107 108 109 110 111 112 113 114 115 116 117 118 119 120 121 122 123 124 125 126 127 128 129 130 131 132 133 134 135 136 137 138 139 140 141 142 143 144 145 146 147 148 149 150 151 152 153 154 155 156 157 158 159 160 161 162 163 164 165 166 167 168 169 170 171 172 173 174 175 176 177 178 179 180 181 182 183 184 185 186 187 188 189 190 191 192 193 194 195 196 197 198 199 200 201 202 203 204 205 206 207 208 209 210 211 212 213 214 215 216 217 218 219 220 221 222 223 224 225 226 227 228 229 230 231 232 233 234 235 236 237 238 239 240 241 242 243 244 245 246 247 248 249 250 251 252 253 254 255 256 257 258 259 260 261 262 263 264 265 266 267 268 269 270 271 272 273 274 275 276 277 278 279 280 281 282 283 284 285 286 287 288
        </DataArray>
        <DataArray type="UInt8" Name="types" format="ascii">
 1 1 1 1 1 1 1 1 1 1 1 1 1 1 1 1 1 1 1 1 1 1 1 1 1 1 1 1 1 1 1 1 1 1 1 1 1 1 1 1 1 1 1 1 1 1 1 1 1 1 1 1 1 1 1 1 1 1 1 1 1 1 1 1 1 1 1 1 1 1 1 1 1 1 1 1 1 1 1 1 1 1 1 1 1 1 1 1 1 1 1 1 1 1 1 1 1 1 1 1 1 1 1 1 1 1 1 1 1 1 1 1 1 1 1 1 1 1 1 1 1 1 1 1 1 1 1 1 1 1 1 1 1 1 1 1 1 1 1 1 1 1 1 1 1 1 1 1 1 1 1 1 1 1 1 1 1 1 1 1 1 1 1 1 1 1 1 1 1 1 1 1 1 1 1 1 1 1 1 1 1 1 1 1 1 1 1 1 1 1 1 1 1 1 1 1 1 1 1 1 1 1 1 1 1 1 1 1 1 1 1 1 1 1 1 1 1 1 1 1 1 1 1 1 1 1 1 1 1 1 1 1 1 1 1 1 1 1 1 1 1 1 1 1 1 1 1 1 1 1 1 1 1 1 1 1 1 1 1 1 1 1 1 1 1 1 1 1 1 1 1 1 1 1 1 1 1 1 1 1 1 1 1 1 1 1 1 1
        </DataArray>
      </Cells>
      <PointData Scalars="overlap">
        <DataArray type="Float32" Name="overlap" format="ascii">
 0.0001025419 0.0000449339 0.0004360825 0.0001042624 0.0001388989 0.0000572473 0.0000919475 0.0000567986 0.0001369467 0.0000523483 0.0002445050 0.0003034887 0.0000610230 0.0000302829 0.0003299940 0.0000088066 0.0002337025 0.0000764509 0.0001041958 0.0003343551 0.0002257875 0.0003393186 0.0001596073 0.0002752759 0.0002192816 0.0001326623 0.0004713274 0.0001649560 0.0000112770 0.0001880284 0.0003123554 0.0000056887 0.0000264344 0.0000560153 0.0000572619 0.0001216734 0.0002309888 0.0002190568 0.0005488098 0.0000441130 0.0001701480 0.0000630140 0.0001154988 0.0001592728 0.0001891833 0.0003527954 0.0001272467 0.0000065193 0.0000732143 0.0002385936 0.0000163652 0.0000040767 0.0000429410 0.0000130816 0.0000117837 0.0000861194 0.0003386845 0.0000822411 0.0000630134 0.0001012325 0.0000010285 0.0000163656 0.0000029833 0.0002274525 0.0000728287 0.0001502064 0.0000467733 0.0002058031 0.0000546243 0.0001015177 0.0001849123 0.0000625848 0.0001262790 0.0000324372 0.0000231570 0.0000316547 0.0000380352 0.0000449151 0.0000050397 0.0000341490 0.0000007170 0.0000040320 0.0001144454 0.0000854083 0.0000225875 0.0000486531 0.0000210915 0.0000491897 0.0000364905 0.0000725148 0.0000124843 0.0000339978 0.0000867416 0.0001019867 0.0001148875 0.0000984935 0.0000665425 0.0001169739 0.0000444986 0.0000038383 0.0000438227 0.0000186604 0.0000450411 0.0000098025 0.0000077900 0.0000931384 0.0000468055 0.0000203066 0.0000093007 0.0000263217 0.0001088707 0.0000016329 0.0000281098 0.0000397702 0.0001761692 0.0001347876 0.0003094518 0.0000583692 0.0000377234 0.0002109415 0.0000035432 0.0000836199 0.0003846494 0.0001151393 0.0002064759 0.0003445434 0.0002562476 0.0001714632 0.0002261480 0.0006247209 0.0005238309 0.0000114549 0.0005554686 0.0005515550 0.0000314105 0.0002836282 0.0000311212 0.0000461684 0.0000516559 0.0002159039 0.0003284038 0.0000531616 0.0002498069 0.0000086448 0.0000150251 0.0000529679 0.0002409420 0.0000418314 0.0000225722 0.0000421109 0.0001429916 0.0003010043 0.0001382952 0.0000736296 0.0005636859 0.0004599423 0.0006169124 0.0004702723 0.0007138666 0.0001866314 0.0003324288 0.0002797357 0.0001977715 0.0000357180 0.0000862578 0.0000865843 0.0000041154 0.0000213696 0.0000736168 0.0000046226 0.0000314770 0.0000086576 0.0000098080 0.0000983218 0.0000540760 0.0000175781 0.0000185217 0.0000246224 0.0001213199 0.0000858458 0.0000633431 0.0000281848 0.0000350664 0.0000906902 0.0000290190 0.0002215504 0.0000471091 0.0000883157 0.0000499694 0.0000011032 0.0000009513 0.0001522833 0.0001123236 0.0001410509 0.0000016755 0.0001009484 0.0000671316 0.0000088254 0.0000255017 0.0000554402 0.0000612261 0.0002759755 0.0000565540 0.0002748383 0.0000548312 0.0000632461 0.0000281306 0.0000542977 0.0000172141 0.0000114625 0.0000023147 0.0000231739 0.0000239661 0.0000165382 0.0000095082 0.0000746853 0.0000463236 0.0000105733 0.0000999816 0.0000711115 0.0000635023 0.0001584081 0.0000364733 0.0000512520 0.0000378657 0.0000700354 0.0000296850 0.0002477551 0.0002634123 0.0001031833 0.0003789018 0.0000481320 0.0001042993 0.0000625401 0.0000430441 0.0001340058 0.0000116554 0.0001280203 0.0000195140 0.0000097821 0.0000531837 0.0000097389 0.0000117065 0.0000405616 0.0000794784 0.0000231123 0.0000112396 0.0000154975 0.0000146085 0.0000461225 0.0000428910 0.0000487491 0.0000371562 0.0000036118 0.0000182492 0.0000002663 0.0000094466 0.0000051577 0.0001125545 0.0000529625 0.0000008327 0.0000130324 0.0000469888 0.0000118059 0.0000021920 0.0000330990 0.0000230690 0.0000197131 0.0000463249 0.0000141836 0.0000508746 0.0000344713 0.0000156265 0.0000082816 0.0000166945 0.0000374245 0.0000422683 0.0000394057 0.0000440692 0.0000732943 0.0000366385 0.0000036261 0.0000264679 0.0000250180 0.0000261051 0.0000636832 0.0000085984 0.0000543688
        </DataArray>
        <DataArray type="Float32" Name="contact normal" NumberOfComponents="3" format="ascii">