<?xml version="1.0"?>
<VTKFile type="UnstructuredGrid" version="0.1" byte_order="LittleEndian">
  <UnstructuredGrid>
    <FieldData>
      <DataArray type="Float32" Name="TIME"  NumberOfTuples="1" format="ascii"> 1.4500000000 </DataArray>
      <DataArray type="Int32"   Name="STEP"  NumberOfTuples="1" format="ascii"> 145000 </DataArray>
    </FieldData>
    <Piece NumberOfPoints="294" NumberOfCells="294">
      <Points>
        <DataArray type="Float32" NumberOfComponents="3" format="ascii">
 3.2293480511 0.1779144715 -3.1095963203 3.3446496012 0.1038094573 -3.0990841969 3.3500250907 0.1168576202 -3.0827977019 3.2954717039 0.1033969410 -3.2142314961 3.3073346694 0.0983908007 -3.2185639071 3.4057823732 0.0956872847 -3.2496045542 3.4025282874 0.3317549238 -3.0806713051 3.4140748441 0.3270626994 -3.0885421658 3.4159688583 0.4170686366 -3.0966965076 3.5086599249 0.1721129958 -3.2961206975 3.5162987133 0.1790217595 -3.2965971234 3.4760057708 0.4370860779 -3.1905013538 3.5557182149 0.2367284401 -3.3791820069 3.4536272596 0.3784894077 -3.3665873529 3.4634764686 0.3766255155 -3.3764331908 3.4828217304 0.3932634712 -3.3855526626 3.6138072948 0.3773181416 -3.2585940763 3.6309548212 0.3705137472 -3.3546553987 3.8820698411 0.2572637265 -2.9126395876 3.8297704058 0.3166880784 -3.0006333463 3.8299799979 0.3125650021 -3.0093646527 3.9182755642 0.5148147939 -3.0715288171 3.9191172411 0.5068545591 -3.0922773335 3.9133399983 0.2874034891 -3.1305158752 3.9141768210 0.3012002881 -3.1381044117 3.8720461656 0.4690306014 -3.1972571457 3.8650532986 0.4500874967 -3.1830654100 3.0689315497 0.7496562104 -2.9287106108 3.0790202930 0.7512045197 -2.9268097739 3.0825871001 0.7422714667 -2.9329725277 3.0080494388 0.8369155601 -2.7601907034 3.0056476776 0.8373845822 -2.7476610400 3.0440325627 0.6665218236 -2.8442978662 3.1274560854 0.7710206080 -2.8925955384 3.1337306823 0.7633525666 -2.8976471926 3.0303980719 0.7296930865 -2.7142025549 3.0379445552 0.7240709750 -2.7172147993 3.4564258646 0.7231224255 -3.0203635771 3.5476077210 0.7283985617 -3.0905193134 3.4537926024 0.7167192995 -3.1394042945 3.4576962966 0.7207805436 -3.1427531606 3.4525024808 0.7226348202 -3.1458771497 3.3171126542 0.7351861884 -3.0872539003 3.5530370786 0.8357353558 -3.1411277271 3.3911642024 0.8187047648 -3.0572961066 3.3859299095 0.8198716989 -3.0625465154 3.3941795335 0.8241100558 -3.0625541579 3.3894582749 0.8255319896 -3.0681326307 3.3852600420 0.8275259544 -3.0743952750 3.3115643717 0.3941523469 -2.6367581104 3.1507744473 0.5854416304 -2.7295906793 3.1283459871 0.6071949850 -2.6743858678 3.3879861731 0.4689811524 -2.6885924117 3.3955912183 0.4690386038 -2.6983890777 3.4001495025 0.4849623811 -2.6971387043 3.4065291330 0.4839890221 -2.7057579385 3.2960912493 0.3970628357 -2.8511290621 3.2558171639 0.6792419884 -2.5867899341 3.2547539624 0.7198978598 -2.7994203185 3.4741082887 0.4683308148 -2.8288656778 3.4818852575 0.4796358507 -2.8293326924 3.3206016997 0.8073865690 -2.6873489885 3.4629284588 0.7636942244 -2.7284808137 3.4742900802 0.7820826400 -2.7394547396 3.3910094863 0.8579862625 -2.8913831729 3.7821981138 0.2937393602 -3.0118706650 3.4625418670 0.0418315095 -3.2051057557 3.5783623478 0.2170708585 -3.1645509455 3.6601818008 0.3522537102 -3.1398140557 3.6708945178 0.3599063305 -3.1377853065 3.5052483235 0.2801324382 -3.0422774884 3.4993724334 0.2785034717 -3.0331406109 3.5705737204 0.1791544148 -2.9242511450 3.4629447918 0.2159575290 -2.9537244627 3.0623241037 0.3905917809 -2.9414127702 3.0571416632 0.3850297503 -2.9312366607 3.0506684998 0.3829512508 -2.8335326531 3.0535644515 0.4080815807 -2.8119187059 3.0593028510 0.4171104664 -2.8061008545 3.0561891851 0.4252758463 -2.7974098331 3.0617539851 0.4322650983 -2.7934401099 3.0586754279 0.4391605139 -2.7858651496 3.0554865718 0.4460130201 -2.7783379875 3.0610801775 0.4516822197 -2.7755427610 3.0579634814 0.4586882254 -2.7678712842 3.0192507003 0.5494861443 -2.8398041370 3.0237586485 0.5546365962 -2.8412579458 3.0775776038 0.5891569560 -2.7110330995 3.0730980720 0.5981389413 -2.7191496701 3.1465025421 0.3226026149 -2.7663347873 3.2067430625 0.2434118220 -2.8654904213 3.2026256427 0.2346883537 -2.8627273013 3.2123230655 0.2442019896 -2.8690364518 3.1968481260 0.2285775028 -2.8589588557 3.2085850588 0.2341438381 -2.8664783424 3.2174516375 0.2467932730 -2.8723278533 3.2223558334 0.2513384083 -2.8755127285 3.2272701085 0.2582642612 -2.8787426838 3.2324857856 0.2684089515 -2.8822023698 3.0917393975 0.2450767456 -2.7221188601 3.2391754651 0.2668841529 -2.8864178363 3.3001077421 0.2677720361 -2.8258724378 3.1222474396 0.1709755525 -2.7210355746 3.0780100915 0.0966346980 -2.7508746994 3.0911571581 0.0737630323 -2.7613522554 3.1682684369 -0.0091326312 -2.7525353115 3.2960110065 0.0666678151 -2.8111782612 3.3083035874 0.0863311454 -2.8189813313 3.3139835659 0.0964792134 -2.8225806717 3.3207353078 0.1014897979 -2.8269488205 3.8017040303 0.1637702524 -3.1722383943 3.7559934534 0.0847032347 -3.1798470058 3.8328763605 0.0996875593 -2.9900848961 3.3327240056 0.1608024987 -2.6555487010 3.3626752359 0.1836925074 -2.7621561997 3.3144205395 0.2664604956 -2.7624708875 3.6901856263 0.6792645786 -2.8800760335 3.6373289793 0.6111683261 -3.0351112425 3.7337775456 0.6681595535 -3.0179828515 3.7310016758 0.6711351324 -3.0236870056 3.7342642618 0.6773752633 -3.0215558382 3.6581453381 0.7426254491 -3.0322008911 3.4101204416 0.4841826487 -3.0665351213 3.4839185410 0.4889678729 -3.0683123896 3.4884471154 0.5080548166 -3.0626441824 3.4972014361 0.5011310595 -3.0728720425 3.3798963438 0.5470735584 -3.1988103825 3.3832643668 0.5612523817 -3.1988763112 3.3850749612 0.5745495030 -3.1971920421 3.3918810525 0.5594059917 -3.2092830789 3.3937478026 0.5725810625 -3.2075279494 3.3942765549 0.5851830486 -3.2043513446 3.4017405805 0.5824067357 -3.2138016580 3.4014625540 0.5945878346 -3.2095220115 3.5638010075 0.6354674814 -3.1381168921 3.5722655727 0.6384320303 -3.1444049286 3.5807121177 0.6413939124 -3.1506843861 3.6272958276 0.4616678609 -3.2364923688 3.6347700751 0.4722249169 -3.2388451300 3.5894630806 0.6445440995 -3.1572378801 3.6420043555 0.4825036571 -3.2412773574 3.4888373497 0.7319924210 -3.2465467647 3.5989153007 0.6481183268 -3.1644120257 3.4963220584 0.7309567509 -3.2561683875 3.6096571898 0.6524678396 -3.1727178799 3.5606897990 0.7574711848 -3.2424720800 3.6553420160 0.5526621692 -3.3387998219 3.5653178889 0.6295270071 -3.3625069930 3.6635694529 0.5596449724 -3.3337360498 3.5784919693 0.6427119030 -3.3741981934 3.7230237086 0.6701935964 -3.2677720448 3.2260008120 0.7091381925 -3.1180026627 3.2201335026 0.7181938398 -3.1191623544 3.2283154363 0.7190565747 -3.1228949894 3.2226572809 0.7291829532 -3.1247768412 3.2358416174 0.7197031709 -3.1266036535 3.2310562260 0.7297462544 -3.1286113275 3.3133607064 0.6126879696 -3.2200281912 3.2428398856 0.7206091111 -3.1300421276 3.3141924866 0.6203338364 -3.2133422108 3.2389563852 0.7304401697 -3.1322565861 3.3183160900 0.6239276626 -3.2223249386 3.3191210634 0.6309809942 -3.2161492437 3.3199209115 0.6375603329 -3.2107485569 3.3243316285 0.6429859770 -3.2194776468 3.3255251988 0.6496962236 -3.2149469516 3.4501261544 0.1050008746 -2.8491883609 3.4463823369 0.0083071417 -2.7871982472 3.2735710472 0.1016296942 -2.7160930982 3.3475402994 0.0487513614 -2.7019259989 3.2766416050 -0.0006652813 -2.6823512203 3.2677488617 0.0073906219 -2.6914597185 3.9449252401 0.4131902388 -3.0807224718 3.1991148152 0.1316593528 -3.0543078830 3.2030831997 0.1348202780 -3.0531467201 3.2199938896 0.1587797163 -2.9862264985 3.2288221364 0.1642758803 -2.9879700366 3.0189184621 0.8514009460 -2.6791516733 3.3223291131 0.4476131071 -3.0366992533 3.3191241724 0.4376643085 -3.0346776190 3.4379703359 0.3546844164 -3.0229450385 3.5325338157 0.5724191740 -3.4037383496 3.5247790399 0.5766164627 -3.3991652873 3.6203086357 0.0595398675 -3.2262633119 3.5971457110 0.0692703493 -3.1824891455 3.6071929986 0.0739602533 -3.1820435398 3.6006370829 0.0754640695 -3.1777663693 3.6922077418 0.1089674530 -3.2390771861 3.5630342437 0.1799901844 -3.2671529215 3.5678994124 0.1838685389 -3.2675118358 3.5004362134 0.1096195706 -2.7400582308 3.5591520249 0.2107377916 -2.7478714282 3.8080842059 0.5921640750 -3.2329228631 3.7738322904 0.5860799827 -3.1424669259 3.7761353174 0.4638792101 -3.2122471669 3.7718058598 0.4609083514 -3.2074896635 3.7712251902 0.4561848973 -3.2120155418 3.7673257170 0.4536552504 -3.2073542014 3.7207420786 0.3709508636 -3.2734181886 3.1660044683 0.8421479250 -3.0060076130 3.6993307777 0.6328115371 -3.1177286736 3.6035058932 0.5796662500 -3.0550950506 3.5959656576 0.5835743636 -3.0490227590 3.1301713352 0.8356417064 -2.6918277609 3.1371967189 0.8347509609 -2.6881616480 3.0787721786 0.2300930718 -2.9628881825 3.1603389074 0.2321927458 -3.0603111467 3.1141462735 0.3722240650 -2.9987621731 3.2126668686 0.0950957260 -2.6712284702 3.2479603761 0.1349185259 -2.6917164141 3.5141875710 -0.0167014736 -2.8577889074 3.4823385989 0.0049519063 -2.9605365314 3.4826970667 0.0007841410 -2.9664011345 3.5698886834 0.0037957147 -2.9844496070 3.5355721071 0.0034252096 -3.0120458024 3.3415557465 0.8342502568 -2.6125515093 3.2040252912 0.8719213855 -2.7345274083 3.5902285650 0.1921924215 -2.8337671320 3.6099262271 0.1250798116 -2.8674001420 3.6072376181 0.1196543793 -2.8687004777 3.4991096926 0.1277954263 -2.8806566895 3.1755768749 0.8257036221 -3.0611959624 3.1672113057 0.8336324662 -3.0580137369 3.2942850411 0.7850243599 -3.1422398786 3.2514378360 0.9074125908 -3.1397693490 3.5667766372 0.7442082434 -2.7583217085 3.5600187224 0.7446568983 -2.6813969911 3.5998951676 0.0746887564 -3.4381516946 3.0944216704 0.0110265551 -2.9791649537 3.0840298512 0.0166871934 -2.9788435411 3.2802151349 0.7185179896 -2.5609029544 3.2786539049 0.7164380996 -2.5595148805 3.3823367523 0.7867352290 -2.6085059751 3.2324917598 0.7591447734 -2.9513024350 3.2925732933 0.8830138379 -2.9183000266 3.3014433960 0.8843293156 -2.9302758701 3.2735148611 0.8606651899 -2.9468587856 3.0059300616 0.1584421270 -2.8831384684 3.0738380107 0.0862162694 -2.9583293622 3.6372860437 0.8849303421 -3.1483175272 3.7281895485 0.8736373524 -3.0968314702 3.6294732253 0.8877017911 -3.1395035936 3.7249172407 0.8522150795 -3.0955166837 3.3457514747 0.2331269510 -2.5417040388 3.7664117068 0.6457180831 -3.0686885380 3.7692669500 0.6504155577 -3.0715622634 3.7657711491 0.6534740121 -3.0748609091 3.7889742705 0.3587337394 -3.1952397858 3.6215585976 0.0368584452 -3.1122471755 3.6231924725 0.0315281963 -3.1189814558 3.7178889772 0.0231837651 -3.2751981244 3.7162220765 0.0159020295 -3.2689383368 3.7294983632 0.0092579730 -3.2278741070 3.7277153296 0.0121232262 -3.2182845745 3.2527385716 0.2826705616 -3.0719024653 3.6513353637 0.8439649742 -3.2611194639 3.6513967093 0.8525555033 -3.2604826169 3.5732274132 0.8787841409 -3.2360314522 3.4465999800 0.4400519517 -2.6159313966 3.2851515852 0.5553534431 -2.5015868587 3.5680578585 0.1075021317 -3.4667199901 3.5694427226 0.1153696701 -3.4572875207 3.5757591755 0.1180609954 -3.4586768006 3.5774848939 0.1230608627 -3.4533346340 3.5797919725 0.1270353213 -3.4498184909 3.5827843735 0.1303609733 -3.4477128018 3.5866768190 0.1332600759 -3.4468828056 3.6064204385 0.0210166543 -3.0447444981 3.5956765219 0.0191553308 -3.0381317931 3.6271908822 0.0269714213 -3.0547819479 3.5167399182 0.0343303419 -3.0131240783 3.6310232689 0.2851931450 -3.4281158144 4.0120014405 0.3120486907 -3.0121087392 3.0655494402 0.5816300235 -2.9078664005 3.0569081413 0.5691612176 -2.9100906574 3.2084816500 0.6125839234 -2.9384263877 3.1948035449 0.4848084732 -3.0293879527 3.2424920451 0.6888615931 -2.9890217064 3.2451163123 0.6854126868 -2.9902756099 3.2895715500 0.4572698232 -3.1463191009 3.2885860405 0.3957551704 -2.5930517121 3.2044220271 0.2709171257 -2.6490710387 3.2472256904 0.2491806674 -2.5944980904 3.2102373949 0.2619162118 -2.6518256566 3.4163978831 0.7532565028 -2.6490396324 3.4904461352 0.0113141727 -2.7996869073 3.4743185435 -0.0138728195 -2.7345702223 3.4743497475 -0.0127666423 -2.7307063982 3.1084958245 0.3813919229 -2.7480543574 3.1021230588 0.3786353723 -2.7456435117 3.7894677585 0.8584182787 -3.0524022383 3.6088187358 -0.0449467823 -2.9029924414 3.3546488477 0.8765935062 -2.9773784173 3.3478612414 0.8705357939 -2.9767147035
        </DataArray>
      </Points>
      <Cells>
        <DataArray type="Int32" Name="connectivity" format="ascii">
 0 1 2 3 4 5 6 7 8 9 10 11 12 13 14 15 16 17 18 19 20 21 22 23 24 25 26 27 28 29 30 31 32 33 34 35 36 37 38 39 40 41 42 43 44 45 46 47 48 49 50 51 52 53 54 55 56 57 58 59 60 61 62 63 64 65 66 67 68 69 70 71 72 73 74 75 76 77 78 79 80 81 82 83 84 85 86 87 88 89 90 91 92 93 94 95 96 97 98 99 100 101 102 103 104 105 106 107 108 109 110 111 112 113 114 115 116 117 118 119 120 121 122 123 124 125 126 127 128 129 130 131 132 133 134 135 136 137 138 139 140 141 142 143 144 145 146 147 148 149 150 151 152 153 154 155 156 157 158 159 160 161 162 163 164 165 166 167 168 169 170 171 172 173 174 175 176 177 178 179 180 181 182 183 184 185 186 187 188 189 190 191 192 193 194 195 196 197 198 199 200 201 202 203 204 205 206 207 208 209 210 211 212 213 214 215 216 217 218 219 220 221 222 223 224 225 226 227 228 229 230 231 232 233 234 235 236 237 238 239 240 241 242 243 244 245 246 247 248 249 250 251 252 253 254 255 256 257 258 259 260 261 262 263 264 265 266 267 268 269 270 271 272 273 274 275 276 277 278 279 280 281 282 283 284 285 286 287 288 289 290 291 292 293
        </DataArray>
        <DataArray type="Int32" Name="offsets" format="ascii">
 1 2 3 4 5 6 7 8 9 10 11 12 13 14 15 16 17 18 19 20 21 22 23 24 25 26 27 28 29 30 31 32 33 34 35 36 37 38 39 40 41 42 43 44 45 46 47 48 49 50 51 52 53 54 55 56 57 58 59 60 61 62 63 64 65 66 67 68 69 70 71 72 73 74 75 76 77 78 79 80 81 82 83 84 85 86 87 88 89 90 91 92 93 94 95 96 97 98 99 100 101 102 103 104 105 106 107 108 109 110 111 112 113 114 115 116 117 118 119 120 121 122 123 124 125 126 127 128 129 130 131 132 133 134 135 136 137 138 139 140 141 142 143 144 145 146 147 148 149 150 151 152 153 154 155 156 157 158 159 160 161 162 163 164 165 166 167 168 169 170 171 172 173 174 175 176 177 178 179 180 181 182 183 184 185 186 187 188 189 190 191 192 193 194 195 196 197 198 199 200 201 202 203 204 205 206 207 208 209 210 211 212 213 214 215 216 217 218 219 220 221 222 223 224 225 226 227 228 229 230 231 232 233 234 235 236 237 238 239 240 241 242 243 244 245 246 247 248 249 250 251 252 253 254 255 256 257 258 259 260 261 262 263 264 265 266 267 268 269 270 271 272 273 274 275 276 277 278 279 280 281 282 283 284 285 286 287 288 289 290 291 292 293 294
        </DataArray>
        <DataArray type="UInt8" Name="types" format="ascii">
 1 1 1 1 1 1 1 1 1 1 1 1 1 1 1 1 1 1 1 1 1 1 1 1 1 1 1 1 1 1 1 1 1 1 1 1 1 1 1 1 1 1 1 1 1 1 1 1 1 1 1 1 1 1 1 1 1 1 1 1 1 1 1 1 1 1 1 1 1 1 1 1 1 1 1 1 1 1 1 1 1 1 1 1 1 1 1 1 1 1 1 1 1 1 1 1 1 1 1 1 1 1 1 1 1 1 1 1 1 1 1 1 1 1 1 1 1 1 1 1 1 1 1 1 1 1 1 1 1 1 1 1 1 1 1 1 1 1 1 1 1 1 1 1 1 1 1 1 1 1 1 1 1 1 1 1 1 1 1 1 1 1 1 1 1 1 1 1 1 1 1 1 1 1 1 1 1 1 1 1 1 1 1 1 1 1 1 1 1 1 1 1 1 1 1 1 1 1 1 1 1 1 1 1 1 1 1 1 1 1 1 1 1 1 1 1 1 1 1 1 1 1 1 1 1 1 1 1 1 1 1 1 1 1 1 1 1 1 1 1 1 1 1 1 1 1 1 1 1 1 1 1 1 1 1 1 1 1 1 1 1 1 1 1 1 1 1 1 1 1 1 1 1 1 1 1 1 1 1 1 1 1 1 1 1 1 1 1 1 1 1 1 1 1
        </DataArray>
      </Cells>
      <PointData Scalars="overlap">
        <DataArray type="Float32" Name="overlap" format="ascii">
 0.0001256596 0.0003406732 0.0000357122 0.0005580653 0.0003377936 0.0000486846 0.0000925974 0.0000556535 0.0001399177 0.0000547866 0.0002484392 0.0003205461 0.0000127071 0.0000585717 0.0000317237 0.0003403193 0.0002171358 0.0000969736 0.0000969034 0.0003461946 0.0002038570 0.0003247543 0.0001888524 0.0002899001 0.0002296290 0.0001256141 0.0004620725 0.0000371067 0.0001192696 0.0000025033 0.0001979043 0.0000187461 0.0001865317 0.0000082573 0.0000177479 0.0000898630 0.0000814227 0.0000989666 0.0002498242 0.0002091012 0.0005374657 0.0000297136 0.0001954702 0.0000793421 0.0001160202 0.0001621298 0.0001960080 0.0003621368 0.0001397484 0.0000645693 0.0002327176 0.0000244015 0.0000169940 0.0000016975 0.0000017267 0.0000888983 0.0003188859 0.0001108804 0.0000600517 0.0001268860 0.0000329449 0.0000119793 0.0000151684 0.0000700538 0.0002318845 0.0000956761 0.0000414928 0.0001587407 0.0000757841 0.0000778761 0.0000025135 0.0001707640 0.0000472952 0.0001007429 0.0000774696 0.0000525893 0.0000033141 0.0000410899 0.0000484900 0.0000551424 0.0000164673 0.0000450890 0.0000023697 0.0000102971 0.0000118397 0.0001026960 0.0000754181 0.0000359334 0.0000515770 0.0000178947 0.0000448916 0.0000314711 0.0000688213 0.0000066616 0.0000295750 0.0000836720 0.0000995842 0.0001132286 0.0000977056 0.0000422627 0.0001168752 0.0000398102 0.0000550081 0.0000120723 0.0000485471 0.0000206872 0.0000135807 0.0000978926 0.0000523449 0.0000237213 0.0000096637 0.0000305514 0.0000884177 0.0000017460 0.0000061049 0.0000121988 0.0001773785 0.0000627213 0.0000416195 0.0001877199 0.0000262219 0.0003007206 0.0002027827 0.0003084908 0.0002506240 0.0001591934 0.0002289168 0.0005516331 0.0003526177 0.0001016748 0.0005526510 0.0004324193 0.0000695983 0.0001914791 0.0000256197 0.0000455818 0.0000559820 0.0002117472 0.0003275969 0.0000626467 0.0002522853 0.0003536145 0.0000681764 0.0002273825 0.0000638469 0.0000139627 0.0000143267 0.0000292403 0.0001610377 0.0002825753 0.0001854190 0.0002242464 0.0002324133 0.0001401478 0.0000836866 0.0003800068 0.0003720490 0.0000619090 0.0000457004 0.0003016240 0.0001771081 0.0002344461 0.0005820226 0.0001966614 0.0002391859 0.0000301207 0.0000208865 0.0001114118 0.0000932552 0.0000199914 0.0000773245 0.0000077649 0.0000454588 0.0000104218 0.0000021962 0.0000052973 0.0000236792 0.0000511617 0.0000211642 0.0000125524 0.0000208304 0.0001180743 0.0000766144 0.0000555864 0.0000201326 0.0000292561 0.0000854053 0.0000261645 0.0002140372 0.0000375694 0.0001940831 0.0000179814 0.0000537172 0.0000202288 0.0000125829 0.0001604692 0.0001267772 0.0001583317 0.0001078137 0.0000240779 0.0000531218 0.0000130089 0.0000325449 0.0000547618 0.0000612712 0.0002104968 0.0000871498 0.0001116025 0.0000161459 0.0000311788 0.0000072411 0.0000288662 0.0000047512 0.0000088980 0.0000026598 0.0000088141 0.0000008507 0.0000014571 0.0000562518 0.0000123925 0.0000299392 0.0001043900 0.0000727485 0.0000849280 0.0000125638 0.0000467853 0.0000382852 0.0000158308 0.0000207635 0.0000906052 0.0000163942 0.0000115698 0.0000359974 0.0000904957 0.0000552032 0.0000448573 0.0001257585 0.0000300503 0.0001216744 0.0001327781 0.0000165115 0.0000129083 0.0000630172 0.0000084507 0.0000089404 0.0000187992 0.0000060175 0.0000522591 0.0000772403 0.0000247626 0.0000340416 0.0000091660 0.0000191011 0.0000484453 0.0000090649 0.0000538617 0.0000284063 0.0000059939 0.0000209374 0.0000218223 0.0000636640 0.0000124865 0.0000878037 0.0000497441 0.0000262496 0.0000212821 0.0000289427 0.0000263289 0.0000125042 0.0000224298 0.0000056877 0.0000375387 0.0000169855 0.0000657102 0.0000194223 0.0000600118 0.0000061671 0.0000128603 0.0000098975 0.0000222617 0.0000143007 0.0000246184 0.0000128637 0.0000128025 0.0000102468 0.0000234468 0.0000771150 0.0000329135 0.0000189726 0.0000236881 0.0000293706 0.0000888065 0.0000070662 0.0000543157
        </DataArray>
        <DataArray type="Float32" Name="contact normal" NumberOfComponents="3" format="ascii">