<?xml version="1.0"?>
<VTKFile type="UnstructuredGrid" version="0.1" byte_order="LittleEndian">
  <UnstructuredGrid>
    <FieldData>
      <DataArray type="Float32" Name="TIME"  NumberOfTuples="1" format="ascii"> 0.2000000000 </DataArray>
      <DataArray type="Int32"   Name="STEP"  NumberOfTuples="1" format="ascii"> 20000 </DataArray>
    </FieldData>
    <Piece NumberOfPoints="268" NumberOfCells="268">
      <Points>
        <DataArray type="Float32" NumberOfComponents="3" format="ascii">
 0.4355559158 0.2242857727 -0.0427079138 0.5320728537 0.1448991438 -0.0959753360 0.5247143722 0.1541051055 0.0494382333 0.6489782258 0.1151154455 -0.0387489147 0.5716145928 0.3679270502 0.0811794883 0.5848725749 0.3616082803 0.0824252904 0.6023648329 0.4498790521 0.0734101088 0.7671191198 0.1786309479 -0.0143013981 0.7742122036 0.1848973261 -0.0102127475 0.7092873386 0.4552387011 0.0366243793 0.8627194404 0.2303438850 -0.0526481983 0.7928291027 0.3793842629 -0.1124181172 0.8290493006 0.3899407670 -0.1097315108 0.8380196107 0.3878357394 0.0717609251 0.8511899216 0.3788861226 0.0717468067 0.9227491988 0.3604220780 0.0076384713 0.8315198216 0.2857561288 0.5180393715 0.8523120798 0.3367706348 0.4131283044 0.8573368970 0.3315369495 0.4067894692 0.9673471716 0.5741435599 0.3435772862 1.0029624081 0.5074406867 0.3861083841 1.0050272604 0.2738350658 0.3482806780 1.0089663301 0.4431949946 0.2848348000 0.1116977346 0.9336567764 0.0722756371 0.2972791550 0.8383330150 0.0339561530 0.1238883368 0.9348480004 0.0781320379 0.1924761623 0.7475639681 0.0304901195 0.1128369792 0.8219033246 0.1220839824 0.2167693917 0.7405127343 0.0917244338 0.2396878087 0.8434307419 0.1461045393 0.2459292348 0.8348762347 0.1457327322 0.2399500377 0.8359263830 0.1503682045 0.6247577407 0.7591443738 0.1454996211 0.7396501632 0.7506600983 0.1478531111 0.6956053013 0.7396348550 0.0515507966 0.7668141077 0.8027690855 0.1665421955 0.7012995859 0.7429424831 0.0511738524 0.6992073221 0.7449616831 0.0454463369 0.6639130808 0.8465964927 0.1464416703 0.6681873974 0.8509995409 0.1433491038 0.5593279088 0.7725672000 0.0056205167 0.7879529419 0.8511920721 0.1067727258 0.6145248517 0.8586405891 0.0689592581 0.6144622776 0.8597537122 0.0615978271 0.2271604862 0.4890115409 0.2510892565 0.2356383780 0.4846354488 0.3688095060 0.1906831396 0.6752550544 0.1880410191 0.1419220883 0.7044013658 0.2162397116 0.2141064270 0.6754986120 0.1832878453 0.3121968688 0.4558164151 0.2600420204 0.3540703984 0.4586148257 0.3299895230 0.3629795696 0.5596506769 0.3702598383 0.3557267339 0.4651987229 0.1915725937 0.1961650690 0.7765900090 0.3609474829 0.3309840443 0.7938584590 0.1925034079 0.4894237551 0.5260594593 0.3168586662 0.4971504984 0.5366781124 0.3208583614 0.3240671660 0.8882472974 0.3173243201 0.4549200765 0.8306507063 0.3756537279 0.4727585333 0.8469234168 0.3734540187 0.5105007723 0.9113726458 0.1996820655 0.6426447729 0.7615488369 0.3617976111 0.6780865652 0.0730067349 0.0513390822 0.4683634832 0.1696100940 0.1838193391 0.5711181048 0.0890471549 0.1876837520 0.7459713230 0.2325976151 0.1300817906 0.7407824543 0.1429713909 0.2809433405 0.8111414544 0.3637670823 0.1943812249 0.8191914072 0.3708097810 0.2023480882 0.6112118967 0.3134216278 0.1809975465 0.5878403320 0.2219987444 0.3148219731 0.5264229082 0.2626210597 0.2232359835 0.5364290921 0.3116082184 0.3839725589 0.5244003176 0.3201545436 0.3876044213 0.4494071602 0.4055044029 0.3405865749 0.6635264981 0.5721747387 0.4477139105 0.2282890172 0.4652738560 -0.0242440063 0.2173137130 0.4612381481 -0.0192703478 0.1520349143 0.4702641182 0.0531609811 0.1440885552 0.4973352045 0.0707988584 0.1460908881 0.5065190156 0.0785412830 0.1393249744 0.5157824087 0.0830482831 0.1420791712 0.5227564238 0.0893217076 0.1358696263 0.5306348077 0.0930338657 0.1329349357 0.5440083117 0.1020707045 0.1266485265 0.5520059955 0.1058346646 0.1574046917 0.6329027801 0.0182787217 0.1463041643 0.6321861022 0.0204690025 0.1623132479 0.6373259465 0.0197462819 0.1517255850 0.6368383128 0.0217574521 0.1400002602 0.6366559599 0.0244441265 0.1567589865 0.6414827924 0.0231959496 0.1455987417 0.6415793625 0.0256700729 0.1229659029 0.6861969790 0.1569384463 0.2759079732 0.3175817987 0.1311964763 0.2699306693 0.3095221495 0.1311688204 0.2825328943 0.3175878456 0.1318640128 0.2623623076 0.3042787643 0.1307811914 0.2768135127 0.3081559581 0.1319697163 0.2888705005 0.3194390654 0.1323720532 0.2952075032 0.3232548434 0.1327396029 0.3018721681 0.3294254701 0.1329757357 0.3093078480 0.3387414190 0.1330813852 0.0984006836 0.3429804808 0.1715492044 0.3169249512 0.3363014724 0.1340159438 0.3184731606 0.3326300878 0.2191936598 0.3273410881 0.3396148291 0.2192333252 0.1124223906 0.2675163176 0.1946037596 0.1455563918 0.0822897665 0.2063780962 0.1622716976 0.0733734756 0.2152195863 0.2815197066 0.1373716085 0.2362338345 0.2904464808 0.1421179913 0.2368202625 0.3072338991 0.1599033295 0.2375345745 0.3151169428 0.1691754729 0.2378273342 0.3236778433 0.1731945428 0.2384018568 0.8084525929 0.1172127342 0.4312066779 0.3511409956 0.2610351893 0.4012574833 0.3441753126 0.2647487709 0.3169960763 0.3434535729 0.2680260771 0.3123975399 0.3058991853 0.3476115696 0.2783635270 0.3707221830 0.3760008153 0.3323614845 0.7160231431 0.7148982884 0.4032764178 0.7988048415 0.8180871195 0.4165874772 0.7957707340 0.8296271419 0.4121989701 0.8343874069 0.6884764824 0.3156115068 0.7918912223 0.7648877182 0.2619374388 0.5872045636 0.5203093124 0.0898970808 0.6464223881 0.5198253397 0.1344641104 0.6487249961 0.5389237810 0.1408828058 0.6460266423 0.5555979395 -0.0353489219 0.6529190332 0.5703341220 -0.0349564336 0.6662514048 0.5666985577 -0.0372299943 0.7912116128 0.6550482679 0.1240443034 0.8581479515 0.4641049512 0.0938447415 0.8667143637 0.4737909900 0.0962209387 0.8024460545 0.6568352877 0.1242565743 0.8751088413 0.4832091247 0.0983971554 0.7899298169 0.7408710530 -0.0120015578 0.8146607272 0.6589252106 0.1244041886 0.8092557223 0.7493746355 -0.0109958294 0.8286715902 0.6615687228 0.1244406317 0.8464566286 0.7613814468 0.0350208612 0.9583747368 0.5480087893 0.0363818086 0.9272786464 0.6319044805 -0.0518422822 0.9776680313 0.6606904951 0.1202987718 0.9619118398 0.7117231968 0.0905101552 0.9897129978 0.6536272598 0.1128436565 0.4387263712 0.1650694748 0.3016254482 0.3857624557 0.0763187325 0.3518946671 0.2189462267 0.1887377217 0.2955362968 0.2694474892 0.1287384476 0.3561454640 0.1879624046 0.0908344270 0.3282256879 0.3046884024 0.1433072335 0.0202757208 0.3396014758 0.0966148198 0.0012418523 0.3746066485 0.1899863234 -0.0134031260 0.3499634366 0.2190798023 0.0489161089 0.3585489176 0.2238821339 0.0527112993 0.2468156258 0.1756758730 0.4285287987 0.4961641603 0.4934105522 0.0609071257 0.4912020905 0.4839962213 0.0609234229 0.8929497984 0.5669808604 -0.1017476533 0.8989674322 0.5650957733 -0.1045809366 0.7973319709 0.0668303166 0.1145890296 0.7617342731 0.0869378663 0.1403671188 0.7541826735 0.0893596431 0.1395691964 0.8673564569 0.1093413901 0.1472431618 0.8750907075 0.1220897987 0.1528427185 0.7927491164 0.1857971047 0.0418782507 0.7972415723 0.1892575963 0.0444632992 0.4061240787 0.1776622381 0.4202747984 1.0130927882 0.5812458142 0.2037465247 0.9300589180 0.5874074373 0.2533544633 0.9531780145 0.4563223362 0.2065548511 0.9549106397 0.4512115605 0.2028605588 0.9487044012 0.4494833928 0.2041851866 0.9428961610 0.3635393988 0.1269807941 0.8624298438 0.6415144066 0.2242360664 0.1854082225 0.9283750112 0.2011103939 0.2345101642 0.3025542237 -0.0239543046 0.3585108617 0.2883677233 -0.0481017445 0.2490552474 0.4265724239 0.2513524376 0.1429900453 0.1914161635 0.2930503150 0.1880460873 0.2261046915 0.2972958178 0.1368015337 0.3020268880 0.2173448043 0.1286228244 0.2916836582 0.2218657649 0.5964631421 0.0420906582 0.2886635745 0.2979178715 0.9219294866 0.3876606345 0.2706496883 0.9551448702 0.2050151643 0.5767441771 0.1717207669 0.3859242183 0.4989914637 0.1809869629 0.3063185034 0.6117692760 0.9248628493 0.1975593117 0.9674526218 0.1444213280 0.0819834254 0.9661328126 0.1461452178 0.1311170993 0.9691137655 0.3687110427 0.1967077243 0.4655172075 0.9230336757 0.0093338668 0.4650005190 0.9296790466 0.0093978833 0.4100829457 0.9243597973 0.0669987227 0.6607909481 0.7235314328 0.3950890881 0.5521381099 0.8006526984 0.4178295045 0.4996683240 0.8099263998 0.4737504332 0.5114317377 0.8382845524 0.4721342571 0.9218554680 0.1228798014 -0.0030834876 0.4119930203 0.8177813654 0.0583665954 0.4536298744 0.9400929172 0.1162900052 0.4680572587 0.9394791086 0.1123886055 0.4536371838 0.9161493013 0.0830165641 0.1197975211 0.2452110680 -0.0040948473 0.2100458026 0.1606066044 -0.0174273585 0.8639786538 0.8926198187 0.1508935082 0.9018320064 0.8807608285 0.2482324184 0.8958615668 0.8598874227 0.2481505586 0.2011452272 0.3264996899 0.4739238742 0.8829266558 0.6493920726 0.3084892672 0.8861752371 0.6551288393 0.3037915107 0.8907335268 0.6592850452 0.3031394729 0.9464319290 0.3552211764 0.2311459559 0.1629417027 0.2273641189 0.3087814762 0.7256013294 0.0569671150 0.2056052007 0.7303526527 0.0508277139 0.2015794114 0.9170169931 0.1709160163 0.2011862215 0.9078573253 0.1758063452 0.2014291720 0.8773124587 0.0092107587 0.1834070055 0.8703855618 0.0132215264 0.1896728971 0.3543777748 0.4853365810 0.3909144519 0.4024200713 0.1578580638 -0.0736874556 0.4435985345 0.3305949242 -0.0031653849 0.8718403401 0.8729722455 0.0354773276 0.8707469228 0.8785898001 0.0403851345 0.8672434321 0.8813948508 0.0426821449 0.8696036291 0.8843750251 0.0454195364 0.8637365392 0.8842899086 0.0450762763 0.8659524975 0.8874577350 0.0479372369 0.8621767943 0.8909128028 0.0507951477 0.1261956713 0.2307699372 0.0277447991 0.1549134101 0.6608953599 0.4521910579 0.9127854389 0.1028770223 -0.0973412492 0.9188173990 0.1393416855 -0.0613676451 0.9130162503 0.1157537947 -0.0848917418 0.9158911692 0.1184381546 -0.0819297785 0.9164208141 0.1252344768 -0.0753002827 0.6703079614 0.0495031853 0.2494084099 0.6576430399 0.0491345120 0.2479549798 0.5826291412 0.0724492410 0.2177172524 0.9434094099 0.2716942422 -0.0431202905 0.3597239198 0.5076003531 -0.0539112054 0.2335185499 0.6581994800 -0.0043590312 0.3674686576 0.6754879519 0.0595666864 0.3969717042 0.5397664378 -0.0146029580 0.5394786377 0.4936511007 -0.0456296954 0.2152850732 0.4924394407 0.3904747988 0.2077067393 0.4883102239 0.3944448173 0.1911068329 0.4928724761 0.3884643669 0.1444734321 0.3688694775 0.2976181311 0.1412202226 0.3504573022 0.3678545034 0.1458200973 0.3452920945 0.3663069745 0.1495416539 0.3592188436 0.2995150868 0.3689053537 0.8316836652 0.4092950489 0.3661060669 0.8614989768 0.4026646628 0.4282465617 0.0748699891 0.3691178025 0.3778314382 0.0592379269 0.4080756158 0.3761118282 0.0606597993 0.4106235603 0.3678056339 0.0608236091 0.4177120784 0.1158018762 0.4228808664 0.1995900001 0.1442299193 0.4740324961 0.1559171727 0.1374469172 0.4719971708 0.1539477604 0.4597655183 0.0535065814 0.4094622707 0.5377161201 0.9231824449 0.1089636842 0.5312849679 0.9177108157 0.1055125991
        </DataArray>
      </Points>
      <Cells>
        <DataArray type="Int32" Name="connectivity" format="ascii">
 0 1 2 3 4 5 6 7 8 9 10 11 12 13 14 15 16 17 18 19 20 21 22 23 24 25 26 27 28 29 30 31 32 33 34 35 36 37 38 39 40 41 42 43 44 45 46 47 48 49 50 51 52 53 54 55 56 57 58 59 60 61 62 63 64 65 66 67 68 69 70 71 72 73 74 75 76 77 78 79 80 81 82 83 84 85 86 87 88 89 90 91 92 93 94 95 96 97 98 99 100 101 102 103 104 105 106 107 108 109 110 111 112 113 114 115 116 117 118 119 120 121 122 123 124 125 126 127 128 129 130 131 132 133 134 135 136 137 138 139 140 141 142 143 144 145 146 147 148 149 150 151 152 153 154 155 156 157 158 159 160 161 162 163 164 165 166 167 168 169 170 171 172 173 174 175 176 177 178 179 180 181 182 183 184 185 186 187 188 189 190 191 192 193 194 195 196 197 198 199 200 201 202 203 204 205 206 207 208 209 210 211 212 213 214 215 216 217 218 219 220 221 222 223 224 225 226 227 228 229 230 231 232 233 234 235 236 237 238 239 240 241 242 243 244 245 246 247 248 249 250 251 252 253 254 255 256 257 258 259 260 261 262 263 264 265 266 267
        </DataArray>
        <DataArray type="Int32" Name="offsets" format="ascii">
 1 2 3 4 5 6 7 8 9 10 11 12 13 14 15 16 17 18 19 20 21 22 23 24 25 26 27 28 29 30 31 32 33 34 35 36 37 38 39 40 41 42 43 44 45 46 47 48 49 50 51 52 53 54 55 56 57 58 59 60 61 62 63 64 65 66 67 68 69 70 71 72 73 74 75 76 77 78 79 80 81 82 83 84 85 86 87 88 89 90 91 92 93 94 95 96 97 98 99 100 101 102 103 104 105 106 107 108 109 110 111 112 113 114 115 116 117 118 119 120 121 122 123 124 125 126 127 128 129 130 131 132 133 134 135 136 137 138 139 140 141 142 143 144 145 146 147 148 149 150 151 152 153 154 155 156 157 158 159 160 161 162 163 164 165 166 167 168 169 170 171 172 173 174 175 176 177 178 179 180 181 182 183 184 185 186 187 188 189 190 191 192 193 194 195 196 197 198 199 200 201 202 203 204 205 206 207 208 209 210 211 212 213 214 215 216 217 218 219 220 221 222 223 224 225 226 227 228 229 230 231 232 233 234 235 236 237 238 239 240 241 242 243 244 245 246 247 248 249 250 251 252 253 254 255 256 257 258 259 260 261 262 263 264 265 266 267 268
        </DataArray>
        <DataArray type="UInt8" Name="types" format="ascii">
 1 1 1 1 1 1 1 1 1 1 1 1 1 1 1 1 1 1 1 1 1 1 1 1 1 1 1 1 1 1 1 1 1 1 1 1 1 1 1 1 1 1 1 1 1 1 1 1 1 1 1 1 1 1 1 1 1 1 1 1 1 1 1 1 1 1 1 1 1 1 1 1 1 1 1 1 1 1 1 1 1 1 1 1 1 1 1 1 1 1 1 1 1 1 1 1 1 1 1 1 1 1 1 1 1 1 1 1 1 1 1 1 1 1 1 1 1 1 1 1 1 1 1 1 1 1 1 1 1 1 1 1 1 1 1 1 1 1 1 1 1 1 1 1 1 1 1 1 1 1 1 1 1 1 1 1 1 1 1 1 1 1 1 1 1 1 1 1 1 1 1 1 1 1 1 1 1 1 1 1 1 1 1 1 1 1 1 1 1 1 1 1 1 1 1 1 1 1 1 1 1 1 1 1 1 1 1 1 1 1 1 1 1 1 1 1 1 1 1 1 1 1 1 1 1 1 1 1 1 1 1 1 1 1 1 1 1 1 1 1 1 1 1 1 1 1 1 1 1 1 1 1 1 1 1 1 1 1 1 1 1 1 1 1 1 1 1 1
        </DataArray>
      </Cells>
      <PointData Scalars="overlap">
        <DataArray type="Float32" Name="overlap" format="ascii">
 0.0001815879 0.0000092967 0.0001195623 0.0000247989 0.0000792761 0.0000270303 0.0000039857 0.0000387096 0.0002352639 0.0002649659 0.0000890548 0.0000509302 0.0002405830 0.0000102514 0.0002160937 0.0000613181 0.0000599640 0.0000243386 0.0000985855 0.0000263740 0.0001521724 0.0000162872 0.0001066796 0.0000345665 0.0002289466 0.0000308006 0.0002392485 0.0000596583 0.0000208065 0.0000382018 0.0001492029 0.0000021921 0.0001440829 0.0000676074 0.0000439180 0.0000990321 0.0000979894 0.0001501715 0.0000365129 0.0000352241 0.0001596604 0.0000271254 0.0000389836 0.0001512772 0.0000920375 0.0001042052 0.0003170099 0.0000651683 0.0001443517 0.0000183718 0.0000134518 0.0000754540 0.0002405627 0.0002177479 0.0000245787 0.0001167246 0.0000100845 0.0001006768 0.0001815071 0.0000790333 0.0002499118 0.0000250679 0.0000082567 0.0000083158 0.0000697167 0.0001325314 0.0000185412 0.0000486171 0.0001944552 0.0000592052 0.0000476964 0.0000554162 0.0000275063 0.0000318101 0.0000263587 0.0000149776 0.0000742771 0.0000803432 0.0000206127 0.0000508837 0.0000412258 0.0000603378 0.0000116419 0.0000468945 0.0000091997 0.0000052588 0.0000834543 0.0001210427 0.0000385221 0.0003201877 0.0000642158 0.0002640913 0.0002440916 0.0000731764 0.0000392663 0.0000262360 0.0000609207 0.0000029398 0.0000216838 0.0000739539 0.0000884569 0.0001010915 0.0000849803 0.0000814500 0.0001008805 0.0000120283 0.0000293927 0.0000508260 0.0000805765 0.0000009404 0.0000069082 0.0000380139 0.0001075840 0.0000478206 0.0000174856 0.0000573937 0.0000509087 0.0000052438 0.0000432630 0.0000550570 0.0000018659 0.0000404892 0.0000195265 0.0000191005 0.0000335243 0.0000665632 0.0000176869 0.0000165853 0.0000106073 0.0000897396 0.0000096950 0.0000260517 0.0000087533 0.0000394574 0.0001668012 0.0000210412 0.0001028832 0.0001077348 0.0000323850 0.0002066428 0.0000343150 0.0001294236 0.0000466995 0.0002049951 0.0000377907 0.0000506144 0.0000238641 0.0000258002 0.0000596402 0.0000583031 0.0000440035 0.0000580947 0.0000281250 0.0000272399 0.0000141827 0.0000092269 0.0000162226 0.0000336429 0.0000046772 0.0000145861 0.0000844145 0.0000066628 0.0000362621 0.0000245682 0.0000649099 0.0000494824 0.0000227668 0.0002246268 0.0000495140 0.0000288547 0.0000126942 0.0000316121 0.0000434273 0.0000447066 0.0000673405 0.0000632980 0.0000740509 0.0000188730 0.0000807788 0.0000530661 0.0000356811 0.0000149895 0.0000705591 0.0000089310 0.0000113247 0.0000207082 0.0000296334 0.0000215277 0.0000294123 0.0000040445 0.0000083907 0.0000108924 0.0000281127 0.0000313736 0.0000741831 0.0000166563 0.0000350289 0.0000343783 0.0000258913 0.0000116724 0.0000197046 0.0000000402 0.0000055577 0.0000648061 0.0001041598 0.0000153883 0.0000537970 0.0000352388 0.0000768489 0.0000059863 0.0000297352 0.0000806640 0.0000000864 0.0000065883 0.0000089202 0.0000162468 0.0000027914 0.0000405326 0.0000175130 0.0000068439 0.0000198398 0.0000037426 0.0000410530 0.0000010290 0.0001369292 0.0000626040 0.0000066586 0.0000420697 0.0000519473 0.0000256975 0.0000294516 0.0000507116 0.0000425630 0.0000217467 0.0000474038 0.0000187399 0.0000236023 0.0000024236 0.0000400975 0.0000300459 0.0000327088 0.0000332325 0.0000197422 0.0000171152 0.0000117193 0.0000562775 0.0000051208 0.0000211197 0.0000129598 0.0000003782 0.0000274023 0.0000381727 0.0000211260 0.0000186269 0.0000997731 0.0000168910 0.0000608473 0.0000195007 0.0000348757 0.0000070093 0.0000167902 0.0000147925 0.0000184376 0.0000364506 0.0000567032 0.0000481333 0.0000048685 0.0001050598
        </DataArray>
        <DataArray type="Float32" Name="contact normal" NumberOfComponents="3" format="ascii">
 0.9443758087 -0.2175796813 -0.2466037596 0.2820703823 0.7307911106 0.6215952478 -0.0624193883 0.6712819924 -0.7385690940 -0.2484516217 0.7701288467 -0.5875145540 -0.0076851072 0.0198777216 -0.9997728819 0.1150186441 -0.0492804610 -0.9921401855 0.5337219112 -0.7773035845 -0.3330766564 -0.4239545284 0.6961671865 -0.5793218503 -0.3707945972 0.7360851110 -0.5662950432 -0.2380273886 -0.9212748491 -0.3075640009 -0.8016575113 0.4818916156 0.3537311201 -0.0530714611 -0.5086135146 0.8593577327 -0.0229797424 -0.4461200301 0.8946780707 -0.1207958531 0.1350204338 -0.9834520041 -0.0929199228 -0.0231621801 -0.9954041397 -0.7628167038 -0.0680875800 0.6430200291 -0.5060703112 0.4971440063 -0.7047983237 0.5204745612 -0.2411792219 0.8191085484 0.5422297533 -0.2318268092 0.8076157658 0.5899335684 -0.7697148522 0.2439619461 -0.7331969516 -0.1268736623 -0.6680758221 -0.1879030319 -0.2544269131 -0.9486618979 0.4180481425 -0.1103086867 0.9017026917 0.0089653783 -0.9829127111 0.1838538124 -0.8202856907 -0.5667872332 0.0767047452 0.0090156929 -0.9828722388 0.1840675946 0.4753207934 0.7301504149 0.4908671052 0.7183910561 0.4874635338 -0.4962797534 0.2547981880 0.7295444370 -0.6346989821 -0.5781033849 -0.3594679090 -0.7325157328 -0.5946205256 -0.4010676515 -0.6968293690 -0.5969982793 -0.4073765802 -0.6911131430 0.0980080683 -0.1273922989 -0.9869982881 -0.6183233173 0.7686124173 -0.1640464181 -0.4231210605 0.6417674516 0.6396116840 -0.2387969764 0.0134939099 -0.9709757559 -0.2218631888 0.6968561272 0.6820324504 -0.6758240965 0.7059642330 0.2118402519 0.3094039646 -0.7462136772 -0.5894356068 0.3414583094 -0.7030225364 -0.6238313364 0.2924174477 0.1766214147 0.9398387692 -0.3946315529 -0.6860311685 0.6112504997 0.5732940051 -0.8110224129 -0.1165187945 0.5567981095 -0.8212363131 -0.1246867407 0.5930355662 0.8008119906 0.0837196095 0.4890610551 0.7833480823 -0.3836470596 0.1553324234 -0.4313217601 0.8887257043 0.8260167605 -0.0866138511 0.5569509424 0.2280157613 0.2222376917 0.9479552843 -0.2052637762 0.8583138114 -0.4702809621 -0.1578255371 0.7163388426 -0.6796688623 -0.1978214109 0.2742119049 -0.9411028215 -0.1327228428 0.5460397227 0.8271791029 0.3700237568 -0.4538066977 -0.8106428933 0.2658353187 -0.9097405490 0.3189102019 -0.4882313628 0.3720104608 -0.7894544657 -0.5919528713 0.6768294425 -0.4375999358 0.6024863076 -0.6341651970 -0.4846078332 -0.0085551762 -0.1939442770 -0.9809752425 0.1574536605 -0.1979186950 -0.9674898113 -0.0648218619 -0.7386733845 0.6709394587 -0.2513909381 -0.0596998207 -0.9660427152 -0.5078474569 -0.3624682467 0.7814779144 0.1925705316 -0.2076180260 -0.9590679567 0.1531083204 0.1910182255 -0.9695720085 -0.3276507979 0.6550942479 0.6808057587 0.1136120470 0.8535657953 -0.5084463943 -0.6461259321 -0.7390149078 0.1907308206 0.1849821248 -0.4039989299 0.8958607471 0.1517671642 -0.2917248695 0.9443851589 0.2485470596 0.5825657120 -0.7738485319 0.8406529320 0.3910577947 0.3746684522 0.2716053448 0.6153804066 -0.7399577636 0.2150956862 0.6620785975 -0.7179037376 0.8870694700 0.4206820729 -0.1900903705 -0.3920798229 -0.7968799396 -0.4596256894 -0.1287899884 0.9469863475 0.2943297413 -0.5124501187 0.7263994248 0.4579724353 0.2732756064 0.5800580174 -0.7673676690 0.2732264065 0.5800775929 -0.7673703910 0.3223287965 0.5786424274 -0.7491842818 0.2732114708 0.5800777861 -0.7673755627 0.3222459747 0.5786462189 -0.7492169813 0.2732077615 0.5800778340 -0.7673768471 0.2732082120 0.5800778282 -0.7673766911 0.2731087950 0.5800791087 -0.7674111113 0.2100457441 -0.5902496346 0.7794139813 0.2037633243 -0.5389033461 0.8173516326 0.2032652515 -0.5350167295 0.8200245951 0.2028187610 -0.5315524737 0.8223846532 0.2022437489 -0.5271179311 0.8253751588 0.2018999004 -0.5244802623 0.8271377664 0.1937298508 -0.4645007219 0.8641225748 -0.1642462716 -0.9118646594 -0.3761994221 -0.1038140496 0.0736651119 0.9918649577 -0.1034933883 0.0732390116 0.9919300206 -0.1033563100 0.0730572668 0.9919577153 -0.1035396152 0.0733004322 0.9919206595 -0.1029005975 0.0724513496 0.9920495295 -0.1030896837 0.0727029206 0.9920114931 -0.1029966317 0.0725907642 0.9920293720 -0.1029741738 0.0728236997 0.9920146311 -0.1033773612 0.0734293955 0.9919280443 0.0440878256 -0.2514272778 -0.9668715466 -0.1017840361 0.0738162524 0.9920640962 0.1320800917 -0.1578779559 -0.9785854078 0.1292161645 -0.1507961758 -0.9800835149 0.3696592753 -0.3456697636 -0.8624757589 0.3810643675 0.3775316830 -0.8439548425 0.7858845812 -0.5949928649 -0.1684307443 0.1002740737 -0.0709505316 -0.9924268901 0.1060101977 -0.0686929536 -0.9919894738 0.1056624025 -0.0650139963 -0.9922744766 0.0851165284 -0.0352221521 -0.9957482496 0.1053930593 -0.0640204953 -0.9923677137 -0.1050944329 0.3946570127 -0.9127984457 -0.2504843157 0.1727539530 -0.9525826365 -0.4395918568 0.7282903841 0.5256920352 -0.2493652370 0.8410702742 0.4800185126 0.2275349402 -0.5877950371 0.7763535569 -0.3986135794 -0.9008444840 -0.1720070636 0.8816507020 0.0950801524 -0.4622248418 -0.7240156519 -0.6891911336 -0.0285817643 -0.5238821919 -0.1256943279 -0.8424656580 -0.9216390676 0.3794079156 -0.0814313369 0.1545863153 -0.4389707268 0.8851032550 0.4503857454 0.8736190914 -0.1842345339 -0.4335284606 -0.4459557013 -0.7830559280 0.2015321468 0.5697589881 -0.7967179484 0.0969219986 -0.0691822140 0.9928846597 0.0969139745 -0.0691519082 0.9928875541 0.1878311302 -0.1183495182 0.9750450544 0.1005423562 -0.5425021480 -0.8340159795 -0.2125842543 0.4000956035 -0.8914771130 -0.2125961778 0.4001065278 -0.8914693666 0.1005055484 -0.5423044281 -0.8341489927 -0.2126067296 0.4001161950 -0.8914625113 -0.1656686876 -0.8971425790 0.4094985701 0.1002800898 -0.5420137902 -0.8343650009 0.2576608356 -0.0215018010 0.9659961523 0.0991101130 -0.5420117936 -0.8345060821 -0.2978829697 -0.8350021940 0.4626414080 -0.8532144376 0.5213825295 -0.0136154843 0.0729026039 0.2636646979 0.9618555700 -0.7309295967 0.4956026429 -0.4691694204 -0.1487704671 -0.7110831654 -0.6871885331 0.0112226133 -0.2142472570 -0.9767149870 -0.8259086278 0.4478460175 0.3425038441 -0.5644227539 0.4916501461 -0.6631041311 0.4897816144 -0.5222427606 -0.6981235343 0.1158840074 -0.0893438486 -0.9892363588 0.9764552344 0.1917782163 -0.0987739387 0.5631609822 0.0828506953 -0.8221833557 0.2032906755 0.9589180474 0.1978612634 -0.6141303695 -0.2560365656 0.7465180281 0.3771069867 -0.4446794329 -0.8124349344 0.7041707158 -0.6698555029 -0.2354510740 -0.5976538443 0.5667613566 0.5670903341 0.8277902122 0.1948601319 0.5261111039 0.2066123348 -0.6696526638 0.7133559091 0.3658409449 0.7897720842 0.4923621210 0.1476307529 0.6821255317 -0.7161772964 -0.1049441130 0.9444151053 0.3115555199 0.2391877013 0.6335345843 -0.7358146329 0.2176047103 0.6258960717 -0.7489341076 -0.3729101106 0.5173371124 -0.7702599311 -0.3698773556 0.5564370891 -0.7440218463 -0.1214364129 -0.5912671004 0.7972806367 -0.1236577644 -0.5814224780 0.8041496498 -0.4817510659 0.6897535450 -0.5405145306 -0.6984470616 -0.6984078361 -0.1561992211 0.5420804217 -0.6896118344 -0.4801919764 -0.4746361879 0.7146715158 -0.5137753532 -0.2113820017 0.4230389846 -0.8811104737 -0.3274553736 0.3328655370 -0.8842926623 -0.4903101380 0.8098322868 -0.3221298431 -0.3296892873 0.4314109179 -0.8397556750 -0.8305508229 0.3807223166 0.4064921256 0.6223787308 0.6947066371 0.3605931279 -0.9473781774 0.2494333888 0.2006429006 0.5296834464 -0.6653297012 0.5260910902 0.0989809662 -0.2865056609 -0.9529518742 0.3971177328 -0.3138381821 -0.8624402018 0.5880187835 -0.6315711990 -0.5053233923 0.1334458729 -0.9866645945 -0.0931942967 -0.8864887209 0.2725596345 -0.3739638931 0.5149770350 -0.1126894793 -0.8497645172 0.5920618320 0.3460814330 0.7277983435 -0.2178426079 0.4548012612 -0.8635394670 0.4143837159 -0.2875295694 0.8634887855 0.7756674085 -0.6238358546 -0.0957543627 0.3285057259 0.6721908296 0.6635084601 -0.2088875780 0.7010708850 -0.6818105265 0.0191315496 -0.4708890825 -0.8819849521 -0.9380156114 -0.1446371930 -0.3149711020 -0.8484426327 -0.0510973304 -0.5268151116 0.2644389135 0.3043795773 -0.9151093563 0.5606061688 -0.1409477149 0.8159990596 0.2093292029 0.0897862305 0.9737143922 0.6155310209 -0.2792798298 -0.7369697002 0.6236237520 -0.2793653520 -0.7301016478 0.0102914880 -0.6992401082 0.7148128121 0.1124462054 0.8716046398 -0.4771385572 -0.4792603028 -0.0620802074 -0.8754745056 -0.3749459470 0.1582179854 -0.9134454587 -0.2608625955 -0.3386914873 0.9040126010 0.1798691470 0.4245202440 -0.8873723302 0.2123334847 0.1695522494 -0.9623754600 0.2698321657 -0.4601558454 0.8458411200 -0.3774053213 0.1156495871 -0.9187983437 -0.3229160851 0.0979369622 -0.9413466702 -0.4499932247 -0.5563143738 0.6985845799 0.5529460843 -0.6934722249 -0.4618949028 0.5535573591 -0.6930097763 -0.4618567961 0.5575463774 -0.6906197525 -0.4606369444 -0.2447136650 0.9280379512 -0.2808216219 -0.5353543593 -0.7445549246 0.3987902634 0.0830374779 0.4197156275 -0.9038493067 0.0825741089 0.4049494413 -0.9106028039 0.2659574076 -0.7057253183 -0.6566722412 -0.5898170872 -0.4745343962 -0.6534010334 0.2189461692 0.8021132795 -0.5555869526 0.1868547319 0.8313987590 -0.5233176978 -0.1972773977 -0.9799067245 0.0294013526 -0.5967371740 0.7998332159 -0.0645877073 -0.5393337456 -0.8360847793 -0.1004059396 -0.0678749937 -0.6820201428 0.7281768399 -0.0627467891 -0.6787384677 0.7316945626 -0.0628074891 -0.6787780962 0.7316525921 -0.0290836163 -0.6558376471 0.7543415167 -0.0620343771 -0.6797891270 0.7307793640 -0.0295805163 -0.6554962329 0.7546188983 -0.0294424651 -0.6554100155 0.7546991804 0.9594832862 0.1941082464 0.2042395949 0.2552362527 0.5378071914 -0.8035035035 -0.0946850564 -0.6912751261 0.7163612498 -0.0946959232 -0.6912568141 0.7163774837 -0.0947265830 -0.6912519007 0.7163781713 -0.0946768342 -0.6912598859 0.7163770426 -0.0946918349 -0.6912574719 0.7163773893 0.0205555210 0.7975841808 -0.6028573174 0.0049088382 0.3442709201 -0.9388575168 0.4625024005 -0.4285432874 0.7761714890 -0.6410732803 -0.7513633142 -0.1564551674 -0.0905431110 -0.8443962556 0.5280122238 0.9284765982 -0.2813591820 -0.2424215695 -0.5610610685 -0.8205917660 -0.1088100685 -0.2688494277 0.8399800753 -0.4713315799 -0.4454662843 -0.1384195995 0.8845336647 0.2358090040 0.0505063595 -0.9704860748 -0.0903219405 -0.9951134132 -0.0398903733 0.0907828216 -0.0873364752 -0.9920336786 0.0967054834 0.3361629244 0.9368257777 0.3989780013 0.7585984345 -0.5151164622 0.4232756846 0.7447158852 -0.5159805666 0.3050228462 0.3036729832 0.9026315874 0.1346112956 -0.1473833173 -0.9798765008 0.0628624388 -0.1228132319 -0.9904368854 -0.8273518255 0.4088296481 -0.3851587668 -0.6664269530 -0.0170132287 -0.7453761912 -0.3409725709 0.7373017116 -0.5832014163 -0.7199210111 -0.0019169512 -0.6940533575 -0.6527276027 -0.6882452635 0.3166467020 0.1287124800 0.5155359519 -0.8471456662 0.0858819767 0.5014466151 -0.8609155466 -0.3984365822 -0.7497348158 0.5283426880 -0.2586845595 -0.2382687321 0.9361144748 -0.2585129033 -0.2887909233 0.9218301804
        </DataArray>
        <DataArray type="Float32" Name="contact force" NumberOfComponents="3" format="ascii">