<?xml version="1.0"?>
<VTKFile type="UnstructuredGrid" version="0.1" byte_order="LittleEndian">
  <UnstructuredGrid>
    <FieldData>
      <DataArray type="Float32" Name="TIME"  NumberOfTuples="1" format="ascii"> 1.5000000000 </DataArray>
      <DataArray type="Int32"   Name="STEP"  NumberOfTuples="1" format="ascii"> 150000 </DataArray>
    </FieldData>
    <Piece NumberOfPoints="293" NumberOfCells="293">
      <Points>
        <DataArray type="Float32" NumberOfComponents="3" format="ascii">
 3.4591793294 0.1767205996 -3.3396393902 3.5798304658 0.1157556783 -3.3127630314 3.5255943709 0.1025415591 -3.4443201517 3.5909999330 0.1142470574 -3.3299976254 3.5374774440 0.0975667268 -3.4486355266 3.6359824206 0.0950183956 -3.4794858672 3.6321500694 0.3306520218 -3.3099579150 3.6437172083 0.3259909708 -3.3178168248 3.6455413018 0.4160197457 -3.3257377043 3.7388820167 0.1716621349 -3.5255929245 3.7465151176 0.1785794516 -3.5260358272 3.7057555319 0.4363368240 -3.4193656060 3.7860522210 0.2365332732 -3.6083923103 3.6837977657 0.3781657332 -3.5956485838 3.6936681339 0.3763367788 -3.6054797260 3.7130139600 0.3930188222 -3.6145193753 3.8437539852 0.3768707142 -3.4873245942 3.8611086491 0.3703280717 -3.5833674146 4.1114100893 0.2561369051 -3.1410888096 4.0592316991 0.3157405890 -3.2290317608 4.0594652026 0.3116401077 -3.2377723461 4.1477026473 0.5141395141 -3.2992251826 4.1486005639 0.5062362232 -3.3199917909 4.1430992239 0.2868769615 -3.3588205817 4.1439379866 0.3006937841 -3.3663705224 4.1017603752 0.4686392685 -3.4251671923 4.0947536478 0.4496526035 -3.4110411837 3.2979332081 0.7478173021 -3.1576009386 3.3080162587 0.7493763649 -3.1556796550 3.3116016532 0.7404296633 -3.1618189568 3.2365510351 0.8346233837 -2.9890286303 3.2341153303 0.8350716102 -2.9765050268 3.2728930125 0.6644603005 -3.0734423318 3.2588763955 0.7273166229 -2.9432333002 3.2664358685 0.7217098310 -2.9462417464 3.6855460282 0.7219077113 -3.2485437068 3.7768661141 0.7274551133 -3.3185012079 3.6831587352 0.7158301224 -3.3676078913 3.6870669751 0.7199028546 -3.3709388258 3.6818772632 0.7217617339 -3.3740678845 3.5463490876 0.7340275828 -3.3157005871 3.7823025942 0.8349355407 -3.3688052132 3.6202724256 0.8175307800 -3.2853564319 3.6150482074 0.8187068389 -3.2906148291 3.6232940767 0.8229529119 -3.2905936825 3.6185833436 0.8243853603 -3.2961783484 3.6143965284 0.8263921395 -3.3024445868 3.5402375297 0.3918142613 -2.8660884176 3.3794475569 0.5831959207 -2.9587539231 3.6166858951 0.4668486500 -2.9175772782 3.6243137243 0.4669374525 -2.9273561270 3.6288559813 0.4828619270 -2.9260538809 3.6352565301 0.4819158350 -2.9346607876 3.5251956730 0.3952652307 -3.0804788421 3.4841190531 0.6767133384 -2.8155024085 3.4834466792 0.7179310657 -3.0280169317 3.7030993919 0.4666407383 -3.0576714616 3.7108692896 0.4779522085 -3.0580935590 3.5489875112 0.8051861442 -2.9155822442 3.6914316739 0.7617297092 -2.9565523185 3.7028086114 0.7801599825 -2.9674400694 3.6197565176 0.8563879553 -3.1193502987 4.0116983570 0.2928055795 -3.2404303285 3.9896328389 0.1453321153 -3.2401581764 3.7093792326 0.0430041437 -3.4347268620 3.8082697587 0.2163553193 -3.3937751089 3.8899143557 0.3515476541 -3.3684970247 3.9006077586 0.3592055961 -3.3664280192 3.7348342646 0.2790214253 -3.2714895471 3.7289427658 0.2773611949 -3.2623679288 3.7999919267 0.1777911734 -3.1536035976 3.6924016461 0.2145713360 -3.1832027758 3.2915974546 0.3888084283 -3.1712667470 3.2864001930 0.3832191610 -3.1611187944 3.2825490941 0.4059628039 -3.0417401754 3.2882668039 0.4149819783 -3.0358870999 3.2851274688 0.4231222229 -3.0271818210 3.2906774911 0.4301063206 -3.0231824471 3.2875766377 0.4369795235 -3.0155964023 3.2899481411 0.4494769248 -3.0052369317 3.2868088432 0.4564604392 -2.9975541706 3.2481669413 0.5474102396 -3.0693341548 3.2526732978 0.5525684871 -3.0707650950 3.3061856247 0.5868004650 -2.9403373604 3.3017146474 0.5957990526 -2.9484395347 3.3754866850 0.3204668661 -2.9961868466 3.4360022774 0.2415821994 -3.0954129948 3.4318867536 0.2328482014 -3.0926804812 3.4415889234 0.2423861738 -3.0989454374 3.4261067750 0.2267228285 -3.0889394855 3.4378544023 0.2323183438 -3.0964205186 3.4467220404 0.2449902219 -3.1022196357 3.4516288564 0.2495476508 -3.1053828347 3.4565437682 0.2564859117 -3.1085850739 3.4617577509 0.2666438396 -3.1120082777 3.3206975531 0.2427820753 -2.9522809319 3.4684574704 0.2651355129 -3.1162137139 3.5228130851 0.2578924878 -3.0509174452 3.5292624710 0.2659205433 -3.0555417608 3.3512693849 0.1687054173 -2.9513193797 3.3071635799 0.0944066329 -2.9814399502 3.3203464973 0.0715698789 -2.9919489101 3.3975106081 -0.0112840690 -2.9831809048 3.5253100168 0.0647762040 -3.0413655910 3.5376018095 0.0844698523 -3.0490930537 3.5432806265 0.0946318376 -3.0526546753 3.5500369470 0.0996593852 -3.0569961363 4.0316825936 0.1632870407 -3.4011232962 3.9860761617 0.0841873285 -3.4090358533 4.0625265600 0.0987801212 -3.2190633206 3.5917138853 0.1817060137 -2.9918956414 3.5434326773 0.2644546997 -2.9921110970 3.9191066191 0.6778915821 -3.1078736688 3.8665767378 0.6101774141 -3.2631821236 3.9629445993 0.6671988857 -3.2457204269 3.9601805488 0.6701867242 -3.2514241660 3.9634361961 0.6764228421 -3.2492711793 3.8872781949 0.7416497689 -3.2598776940 3.6395051325 0.4830704768 -3.2954389972 3.7133134710 0.4879383840 -3.2970398124 3.7178084982 0.5070027110 -3.2913093972 3.7265896919 0.5001153577 -3.3015377559 3.6095185550 0.5462863239 -3.4276210740 3.6128532692 0.5604741235 -3.4276608503 3.6146288573 0.5737721531 -3.4259607238 3.6215240043 0.5586535294 -3.4380291351 3.6233496898 0.5718334631 -3.4362552845 3.6238366951 0.5844330406 -3.4330684435 3.6313500783 0.5816804924 -3.4424859231 3.6310262853 0.5938567020 -3.4381996067 3.7932152480 0.6346837718 -3.3662918254 3.8016908402 0.6376715563 -3.3725539547 3.8101483971 0.6406566375 -3.3788075513 3.8570864938 0.4611844749 -3.4649701931 3.8645561788 0.4717542950 -3.4672796801 3.8189108057 0.6438309856 -3.3853340360 3.8717863335 0.4820457978 -3.4696698820 3.7184026775 0.7314233455 -3.4746470042 3.8283754542 0.6474315603 -3.3924785581 3.7258869978 0.7304837040 -3.4842623625 3.8391315612 0.6518114158 -3.4007499960 3.7902266450 0.7569437897 -3.4703392751 3.8852705058 0.5524706579 -3.5669913968 3.7952288889 0.6293204137 -3.5906963799 3.8934803080 0.5594476522 -3.5618912875 3.8084170651 0.6425466962 -3.6023246721 3.9527016010 0.6698736554 -3.4955116307 3.4553153371 0.7078883253 -3.3469761257 3.4494482812 0.7169304712 -3.3481129348 3.4576274578 0.7178104667 -3.3518431571 3.4651405602 0.7185178166 -3.3555188183 3.4603666863 0.7285227023 -3.3575166244 3.5434786344 0.6192980462 -3.4426499277 3.4682632101 0.7292312146 -3.3611630948 3.5476189520 0.6229066884 -3.4516123465 3.5483898065 0.6299570902 -3.4454400901 3.5491596906 0.6365364693 -3.4400338708 3.5535806502 0.6419773442 -3.4487462092 3.5547445726 0.6486892388 -3.4442086259 3.6794809760 0.1033550626 -3.0789619096 3.6757133331 0.0064899750 -3.0172323915 3.5026565943 0.0994707069 -2.9462417850 3.5839867223 0.0436337147 -2.9366087387 3.5766479840 0.0466245445 -2.9320579718 3.5057534304 -0.0029096861 -2.9127602981 3.4968716219 0.0051618016 -2.9218658102 4.1744459934 0.4125713075 -3.3085801216 3.4110983520 0.0377672868 -3.2563971368 3.4288235010 0.1302906761 -3.2845313461 3.4327892223 0.1334494860 -3.2833554348 3.4584067254 0.1627584019 -3.2180570454 3.2471195750 0.8489011408 -2.9078993745 3.2568832267 0.8576498065 -2.9092718304 3.5517475403 0.4463203495 -3.2658523019 3.5485480226 0.4363628250 -3.2638614100 3.6674585121 0.3534759560 -3.2521058499 3.7625981882 0.5722644003 -3.6321537250 3.7548292143 0.5764439617 -3.6275887652 3.8504986487 0.0590144193 -3.4557913901 3.8272321695 0.0686116717 -3.4120427877 3.8372739117 0.0733100700 -3.4115637853 3.8307074197 0.0747967558 -3.4072968842 3.9223765964 0.1085427397 -3.4683254594 3.7931991138 0.1795136183 -3.4964996618 3.7980613370 0.1833974940 -3.4968382767 3.7295470862 0.1077326198 -2.9697286812 4.0377693058 0.5918378633 -3.4606963469 4.0033364881 0.5854846168 -3.3703283876 4.0058989921 0.4634671054 -3.4404160028 4.0015627294 0.4604794390 -3.4356763273 4.0009957917 0.4557677665 -3.4402143805 3.9970892832 0.4532227158 -3.4355677998 3.9507198633 0.3706438935 -3.5019431345 3.3949219725 0.8406060474 -3.2345147360 3.9287307502 0.6320626094 -3.3456257409 3.8328162261 0.5786798398 -3.2833363481 3.8252604077 0.5825654371 -3.2772684163 3.3584970488 0.8332805474 -2.9204047779 3.3655154414 0.8323870221 -2.9167259757 3.3082487169 0.2283728552 -3.1931334988 3.3899850206 0.2308037620 -3.2904005874 3.3435328006 0.3706098902 -3.2285714801 3.4416600531 0.0927623694 -2.9015212006 3.4769580656 0.1326721982 -2.9218299463 3.3818176401 0.2049106526 -2.9444903915 3.7436816069 -0.0182975888 -3.0877619576 3.7120001003 0.0035924694 -3.1905160186 3.7996032006 0.0025773571 -3.2142635505 3.7653393881 0.0022440684 -3.2419242307 3.5697254404 0.8318938923 -2.8406901035 3.4324046404 0.8697466319 -2.9628454948 3.8392931686 0.1236464241 -3.0968124302 3.8416488657 0.1223695416 -3.1020798549 3.7285076122 0.1262638776 -3.1102747061 3.9597586608 0.1585525274 -3.5784983526 3.9639941779 0.3087310256 -3.5925402463 3.9617299919 0.3132360456 -3.5903471857 3.4046367606 0.8241691772 -3.2896769396 3.3962702964 0.8320929982 -3.2864902054 3.5235992141 0.7839346250 -3.3706232683 3.4806376634 0.9062795176 -3.3676933549 3.7953375950 0.7424405560 -2.9862129448 3.7884291298 0.7426870479 -2.9093008187 3.8434130957 0.0881691460 -3.6608044351 3.8303984258 0.0746942976 -3.6675612580 3.3747367072 0.0271650621 -3.1842324398 3.3194743143 0.0081996590 -3.2132320594 3.3134999750 0.0071527557 -3.2169648341 3.5083705788 0.7159754977 -2.7894488473 3.6105285728 0.7843938983 -2.8366816937 3.4614273360 0.7575430855 -3.1798617509 3.5213267099 0.8813798623 -3.1464103084 3.5302198230 0.8827350738 -3.1583645686 3.5023468153 0.8590887368 -3.1750663114 3.2353103451 0.1564524515 -3.1137026257 3.3034502374 0.0844715456 -3.1889166639 3.8665117409 0.8842164309 -3.3756965209 3.9573203484 0.8728831305 -3.3240448470 3.8586779556 0.8869578135 -3.3668913733 3.9540659653 0.8514544063 -3.3227923890 3.9965021857 0.6386446535 -3.2913815767 3.9957085739 0.6449290631 -3.2964223053 3.9985641133 0.6496391261 -3.2992751476 4.0188069934 0.3582882481 -3.4236523327 3.8515281032 0.0360468511 -3.3418322618 3.8531810373 0.0307351803 -3.3485766310 3.9482137955 0.0228784202 -3.5046124024 3.9465404615 0.0155796030 -3.4983744038 3.9597389304 0.0088471399 -3.4572975985 3.9579340536 0.0116837270 -3.4477031228 3.4823804674 0.2814073476 -3.3016455989 3.8808491541 0.8435629033 -3.4885611268 3.8809048185 0.8521502240 -3.4879003140 3.8026451548 0.8782416418 -3.4635617904 3.8729003992 0.0099028376 -3.1525658600 3.8583007115 0.0127603737 -3.1419452093 3.3468313211 0.0735618229 -3.1620768451 3.6751065542 0.4377817115 -2.8448431223 3.5133387516 0.5526542143 -2.7305381217 3.7986889240 0.1075477919 -3.6962351829 3.8000472935 0.1153922102 -3.6867796324 3.8063643094 0.1180925009 -3.6881487624 3.8080745541 0.1230800780 -3.6827901524 3.8103708569 0.1270474470 -3.6792589767 3.8133559863 0.1303702265 -3.6771384810 3.8172441927 0.1332705088 -3.6762928828 3.8362650280 0.0200188600 -3.2744023764 3.8255090955 0.0181301823 -3.2678169034 3.8570511388 0.0260188066 -3.2843803069 3.8614137129 0.2851793042 -3.6570375711 4.2414937627 0.3113464833 -3.2401922376 3.2945767531 0.5797625272 -3.1372218225 3.2859509145 0.5672925508 -3.1394963763 3.4375496832 0.6109229522 -3.1673981769 3.4241742752 0.4833699398 -3.2587191619 3.4715800596 0.6873718518 -3.2177331859 3.4742105224 0.6839289537 -3.2189904337 3.5192129254 0.4562499176 -3.3755181320 3.5062211509 0.4571777226 -3.3726652045 3.5171410656 0.3932903278 -2.8224178198 3.4331926463 0.2685246591 -2.8789241509 3.4759152663 0.2466799073 -2.8243279854 3.4390228605 0.2595369105 -2.8816906952 3.2858953872 0.0183379952 -3.0940872556 3.6447197700 0.7510394855 -2.8772221183 3.7197904519 0.0095748304 -3.0296152873 3.7035835716 -0.0158091221 -2.9645930930 3.7035905858 -0.0147048607 -2.9607292115 3.3373735948 0.3791577824 -2.9778278001 3.3309985014 0.3763894618 -2.9754367250 3.8384237645 -0.0463100017 -3.1328189398 3.5835272323 0.8751802669 -3.2053745279 3.5767446314 0.8691137016 -3.2047406311
        </DataArray>
      </Points>
      <Cells>
        <DataArray type="Int32" Name="connectivity" format="ascii">
 0 1 2 3 4 5 6 7 8 9 10 11 12 13 14 15 16 17 18 19 20 21 22 23 24 25 26 27 28 29 30 31 32 33 34 35 36 37 38 39 40 41 42 43 44 45 46 47 48 49 50 51 52 53 54 55 56 57 58 59 60 61 62 63 64 65 66 67 68 69 70 71 72 73 74 75 76 77 78 79 80 81 82 83 84 85 86 87 88 89 90 91 92 93 94 95 96 97 98 99 100 101 102 103 104 105 106 107 108 109 110 111 112 113 114 115 116 117 118 119 120 121 122 123 124 125 126 127 128 129 130 131 132 133 134 135 136 137 138 139 140 141 142 143 144 145 146 147 148 149 150 151 152 153 154 155 156 157 158 159 160 161 162 163 164 165 166 167 168 169 170 171 172 173 174 175 176 177 178 179 180 181 182 183 184 185 186 187 188 189 190 191 192 193 194 195 196 197 198 199 200 201 202 203 204 205 206 207 208 209 210 211 212 213 214 215 216 217 218 219 220 221 222 223 224 225 226 227 228 229 230 231 232 233 234 235 236 237 238 239 240 241 242 243 244 245 246 247 248 249 250 251 252 253 254 255 256 257 258 259 260 261 262 263 264 265 266 267 268 269 270 271 272 273 274 275 276 277 278 279 280 281 282 283 284 285 286 287 288 289 290 291 292
        </DataArray>
        <DataArray type="Int32" Name="offsets" format="ascii">
 1 2 3 4 5 6 7 8 9 10 11 12 13 14 15 16 17 18 19 20 21 22 23 24 25 26 27 28 29 30 31 32 33 34 35 36 37 38 39 40 41 42 43 44 45 46 47 48 49 50 51 52 53 54 55 56 57 58 59 60 61 62 63 64 65 66 67 68 69 70 71 72 73 74 75 76 77 78 79 80 81 82 83 84 85 86 87 88 89 90 91 92 93 94 95 96 97 98 99 100 101 102 103 104 105 106 107 108 109 110 111 112 113 114 115 116 117 118 119 120 121 122 123 124 125 126 127 128 129 130 131 132 133 134 135 136 137 138 139 140 141 142 143 144 145 146 147 148 149 150 151 152 153 154 155 156 157 158 159 160 161 162 163 164 165 166 167 168 169 170 171 172 173 174 175 176 177 178 179 180 181 182 183 184 185 186 187 188 189 190 191 192 193 194 195 196 197 198 199 200 201 202 203 204 205 206 207 208 209 210 211 212 213 214 215 216 217 218 219 220 221 222 223 224 225 226 227 228 229 230 231 232 233 234 235 236 237 238 239 240 241 242 243 244 245 246 247 248 249 250 251 252 253 254 255 256 257 258 259 260 261 262 263 264 265 266 267 268 269 270 271 272 273 274 275 276 277 278 279 280 281 282 283 284 285 286 287 288 289 290 291 292 293
        </DataArray>
        <DataArray type="UInt8" Name="types" format="ascii">
 1 1 1 1 1 1 1 1 1 1 1 1 1 1 1 1 1 1 1 1 1 1 1 1 1 1 1 1 1 1 1 1 1 1 1 1 1 1 1 1 1 1 1 1 1 1 1 1 1 1 1 1 1 1 1 1 1 1 1 1 1 1 1 1 1 1 1 1 1 1 1 1 1 1 1 1 1 1 1 1 1 1 1 1 1 1 1 1 1 1 1 1 1 1 1 1 1 1 1 1 1 1 1 1 1 1 1 1 1 1 1 1 1 1 1 1 1 1 1 1 1 1 1 1 1 1 1 1 1 1 1 1 1 1 1 1 1 1 1 1 1 1 1 1 1 1 1 1 1 1 1 1 1 1 1 1 1 1 1 1 1 1 1 1 1 1 1 1 1 1 1 1 1 1 1 1 1 1 1 1 1 1 1 1 1 1 1 1 1 1 1 1 1 1 1 1 1 1 1 1 1 1 1 1 1 1 1 1 1 1 1 1 1 1 1 1 1 1 1 1 1 1 1 1 1 1 1 1 1 1 1 1 1 1 1 1 1 1 1 1 1 1 1 1 1 1 1 1 1 1 1 1 1 1 1 1 1 1 1 1 1 1 1 1 1 1 1 1 1 1 1 1 1 1 1 1 1 1 1 1 1 1 1 1 1 1 1 1 1 1 1 1 1
        </DataArray>
      </Cells>
      <PointData Scalars="overlap">
        <DataArray type="Float32" Name="overlap" format="ascii">
 0.0001321533 0.0001473777 0.0005771339 0.0000998204 0.0003809197 0.0000456031 0.0000905587 0.0000542417 0.0001383267 0.0000556966 0.0002495103 0.0003127999 0.0000092194 0.0000553288 0.0000254166 0.0003248874 0.0002187828 0.0000949259 0.0001107801 0.0003352631 0.0001980678 0.0003025649 0.0001529028 0.0002844047 0.0002237469 0.0001251349 0.0004533542 0.0000294869 0.0000902326 0.0000680995 0.0002072135 0.0000065602 0.0001824213 0.0000856772 0.0000828250 0.0000867504 0.0002465235 0.0002209886 0.0005452248 0.0000397776 0.0001743855 0.0000789776 0.0001187236 0.0001662033 0.0001994271 0.0003668294 0.0001458051 0.0000715620 0.0002096680 0.0000365514 0.0000133569 0.0000094772 0.0000898792 0.0003223413 0.0001352626 0.0000467117 0.0001273772 0.0000267414 0.0000033041 0.0000398604 0.0000570873 0.0002096026 0.0001005459 0.0000084587 0.0000058213 0.0001567770 0.0000691493 0.0000590202 0.0000016283 0.0001772346 0.0000716278 0.0001097962 0.0000560193 0.0000336050 0.0000351472 0.0000434384 0.0000506255 0.0000125505 0.0000417256 0.0000079739 0.0000100860 0.0001032403 0.0000758527 0.0000338297 0.0000493730 0.0000290890 0.0000470483 0.0000341121 0.0000709449 0.0000096353 0.0000322642 0.0000856585 0.0001013216 0.0001145827 0.0000985011 0.0000512963 0.0001177470 0.0000011905 0.0000428685 0.0000540153 0.0000259361 0.0000498946 0.0000142554 0.0000077996 0.0000923346 0.0000466307 0.0000183732 0.0000126291 0.0000213966 0.0000873680 0.0000172792 0.0000137836 0.0001969054 0.0000621471 0.0000540613 0.0001902507 0.0000242062 0.0002800299 0.0001820323 0.0002864250 0.0002278478 0.0001434250 0.0002275754 0.0004938386 0.0002351578 0.0001220428 0.0005068413 0.0003193896 0.0000282325 0.0000785239 0.0000160287 0.0000370237 0.0000484540 0.0001815351 0.0002988503 0.0000561715 0.0002249787 0.0003445775 0.0000628184 0.0000816952 0.0000597304 0.0000299222 0.0000056485 0.0000290598 0.0001533974 0.0002820331 0.0001610099 0.0001537357 0.0001876252 0.0000727492 0.0001913592 0.0002602233 0.0001657414 0.0000513254 0.0000332093 0.0004707053 0.0001610327 0.0001551386 0.0000187041 0.0000263947 0.0000858706 0.0000914418 0.0000061036 0.0000135848 0.0000751000 0.0000048752 0.0000151823 0.0000376767 0.0000086915 0.0000012866 0.0000040576 0.0000163185 0.0000162928 0.0000236266 0.0000127507 0.0000140089 0.0001118968 0.0000706080 0.0000561801 0.0000193098 0.0000290599 0.0000848204 0.0000309684 0.0002146932 0.0000380606 0.0001902303 0.0000489544 0.0000250882 0.0000076803 0.0001554691 0.0001218130 0.0001535308 0.0000997588 0.0000646933 0.0000519102 0.0000237862 0.0000409049 0.0000535558 0.0000597169 0.0002182852 0.0000927658 0.0001571059 0.0000113111 0.0000291062 0.0000032445 0.0000083563 0.0000136838 0.0000076225 0.0000066951 0.0000087563 0.0000015514 0.0000677215 0.0000509808 0.0000375246 0.0000052179 0.0000015995 0.0000169173 0.0000566420 0.0000575799 0.0000227689 0.0000006749 0.0000382519 0.0000435009 0.0000021214 0.0000025466 0.0001356955 0.0000701078 0.0001042472 0.0000089756 0.0000420079 0.0000917079 0.0000541061 0.0000437337 0.0001268748 0.0000396208 0.0000979892 0.0001340723 0.0000081815 0.0000158642 0.0000569993 0.0000027761 0.0000157233 0.0000163061 0.0000481541 0.0000804363 0.0000282968 0.0000284090 0.0000032362 0.0000203964 0.0000425269 0.0000004268 0.0000405910 0.0000201097 0.0000048288 0.0000269154 0.0000124740 0.0000430248 0.0000458534 0.0000267191 0.0000507252 0.0000008515 0.0000775462 0.0000404534 0.0000178765 0.0000138489 0.0000225406 0.0000285096 0.0000146287 0.0000228206 0.0000288588 0.0000101082 0.0000623230 0.0000148234 0.0000515734 0.0000098557 0.0000101936 0.0000073460 0.0000172339 0.0000221127 0.0000085979 0.0000251253 0.0000059877 0.0000173231 0.0000973182 0.0000077814 0.0000267095 0.0000408658 0.0000325660 0.0000185400 0.0000223182 0.0000857130 0.0000093080 0.0000564172
        </DataArray>
        <DataArray type="Float32" Name="contact normal" NumberOfComponents="3" format="ascii">