<?xml version="1.0"?>
<VTKFile type="UnstructuredGrid" version="0.1" byte_order="LittleEndian">
  <UnstructuredGrid>
    <FieldData>
      <DataArray type="Float32" Name="TIME"  NumberOfTuples="1" format="ascii"> 0.3000000000 </DataArray>
      <DataArray type="Int32"   Name="STEP"  NumberOfTuples="1" format="ascii"> 30000 </DataArray>
    </FieldData>
    <Piece NumberOfPoints="245" NumberOfCells="245">
      <Points>
        <DataArray type="Float32" NumberOfComponents="3" format="ascii">
 0.4552529019 0.2349296858 -0.1437825038 0.5418551680 0.1493816922 -0.0803734027 0.5368208360 0.1558208165 -0.2182132469 0.6617019640 0.1207784218 -0.1865236100 0.6175179058 0.3696477695 -0.0437197313 0.6305548915 0.3629736293 -0.0453777422 0.6487128491 0.4511303756 -0.0541755308 0.7842926067 0.1803710993 -0.1834758363 0.7922464853 0.1862812301 -0.1806292456 0.7464094553 0.4556724526 -0.1111761662 0.8720545692 0.2315293615 -0.2379289176 0.7965057388 0.3847044966 -0.2767220916 0.8328654935 0.3942665258 -0.2808165919 0.8773406975 0.3837815201 -0.1049492372 0.8899598671 0.3745389162 -0.1079290898 0.9468679340 0.3573316144 -0.1856278321 0.9548172554 0.2612457713 0.3297866464 0.9563677161 0.3161481506 0.2248716840 0.9598922582 0.3110529237 0.2174980817 1.0950752057 0.4763683899 0.1905572541 1.1045362827 0.4838426626 0.1749847248 1.0910809066 0.2521056006 0.1287364174 0.1815695031 0.9450433033 0.0598149245 0.3535315061 0.8482116886 -0.0180475000 0.2481060245 0.7591425789 -0.0028492922 0.1832608469 0.8386366196 0.1043563380 0.1903044051 0.8317474314 0.1051057735 0.3257236709 0.8418818494 0.1017237901 0.6946660703 0.7561911834 0.0242589118 0.8074370205 0.7449494821 0.0034594058 0.7449581873 0.7393230232 -0.0825609771 0.8393889282 0.7955064579 0.0184393780 0.7505692539 0.7425105557 -0.0839278270 0.7474511728 0.7448386208 -0.0890408062 0.7359936864 0.8425877252 0.0209217459 0.7397117633 0.8470265182 0.0172229768 0.6034026795 0.7774553706 -0.0992486078 0.8498734870 0.8460924491 -0.0423480225 0.6727143030 0.8592710604 -0.0446986423 0.6712390952 0.8607161552 -0.0518518175 0.3173279769 0.4908923803 0.1957381956 0.3487031920 0.4810179794 0.3091783809 0.2750569330 0.6806381769 0.1485640171 0.2337511858 0.7095787960 0.1870431343 0.4499596256 0.5417311480 0.2955770245 0.4610679184 0.5400402580 0.2903268880 0.4562849504 0.4540417202 0.2466495258 0.4761616768 0.5529139737 0.2883591313 0.4308418179 0.4668398034 0.1110293018 0.3177376347 0.7738630721 0.3208694802 0.4171922972 0.7955985362 0.1298829726 0.5884648790 0.5188542476 0.2096360188 0.5971591320 0.5291002815 0.2124414489 0.4379974143 0.8843926708 0.2572446691 0.5758840170 0.8211953709 0.2861272146 0.5934490524 0.8371338115 0.2810913980 0.5982335215 0.9084760844 0.1059926282 0.7549135227 0.7484554815 0.2326146618 0.8928261324 0.1555256778 0.1761100949 0.6328346486 0.0921709712 0.0508333918 0.7937952242 0.2282855852 -0.0357213584 0.8155830456 0.1320996673 0.1095142382 0.8744524763 0.3548810278 0.0195583491 0.8841322711 0.3613826639 0.0260304059 0.6743139417 0.3098397923 0.0440400137 0.6748800201 0.2130322956 0.1761240958 0.6409467603 0.3005897557 0.2575930304 0.6301451307 0.3092382317 0.2638719137 0.7862643449 0.5549987136 0.3051610095 0.2633007444 0.4796034852 -0.0751707703 0.2534012415 0.4756106303 -0.0682853055 0.3356313531 0.5775410153 -0.0786013300 0.2005293280 0.5092957110 0.0358892343 0.2043076503 0.5180745864 0.0434353682 0.1988608426 0.5272820108 0.0495548215 0.1979140286 0.5417487756 0.0606029646 0.1972434770 0.5547688145 0.0705607239 0.1920795176 0.5627364488 0.0758047638 0.1912456272 0.5766163070 0.0864110399 0.2027403748 0.6507344587 -0.0082306429 0.2081064805 0.6551850044 -0.0076292790 0.2027967122 0.6945392081 0.1319061737 0.2037138368 0.7032534055 0.1224245029 0.2500193921 0.4180848078 0.1208408163 0.3360256116 0.3239812395 0.0618592057 0.3299074134 0.3160720902 0.0626958215 0.3426490604 0.3238032167 0.0612007972 0.3222485370 0.3110287983 0.0636070444 0.3367663534 0.3145115759 0.0620623828 0.3490180642 0.3254818673 0.0605164537 0.3554211023 0.3291289049 0.0597727375 0.3621940068 0.3351260795 0.0589290257 0.3697964699 0.3442524971 0.0579298429 0.1708352080 0.3516374455 0.1375521019 0.3773671843 0.3415965254 0.0572391022 0.3955385945 0.3340298948 0.1402033044 0.4044577267 0.3407979418 0.1387641896 0.1867176250 0.2749038970 0.1543540752 0.1632207146 0.1787400691 0.1069542874 0.2156275463 0.0886018175 0.1519397783 0.3655044925 0.1436169482 0.1554384062 0.3826591726 0.1609569732 0.1535191453 0.3907356821 0.1700204397 0.1526126894 0.9259795292 0.1009875015 0.2391905529 0.4716842684 0.2631357126 0.3066719500 0.8333525301 0.6981742361 0.2567180936 0.8441356048 0.6180194981 0.1053242224 0.9203315881 0.7987076434 0.2570459131 0.9168407974 0.8104955508 0.2537335687 0.9311564615 0.6726144905 0.1464136012 0.9340307458 0.6785544648 0.1496714456 0.8813580272 0.7521651908 0.1050465183 0.6393563314 0.5210818876 -0.0321907880 0.7061509381 0.5172240336 -0.0003197399 0.7102829155 0.5359581793 0.0062747267 0.6734185987 0.5606038661 -0.1651134207 0.6932142405 0.5713066729 -0.1705357914 0.8502503282 0.6493928315 -0.0338919720 0.9038460132 0.4585029449 -0.0842929841 0.9130148105 0.4678709874 -0.0832819433 0.8613567700 0.6509074615 -0.0358423550 0.9219672193 0.4769844535 -0.0824432302 0.8248868514 0.7412976005 -0.1635000344 0.8327869170 0.7526850045 -0.1605584139 0.8734205218 0.6527047957 -0.0380385405 0.8872398579 0.6550183803 -0.0406780362 0.8901892499 0.7583131339 -0.1278314903 0.9933718668 0.5425644597 -0.1571301415 0.9481621637 0.6310392079 -0.2340494674 1.0323939857 0.6508739167 -0.0743212210 1.0126931180 0.7035529331 -0.0983493154 1.0425016082 0.6438802652 -0.0842812679 0.5243022164 0.1601992498 0.1904758740 0.4794786215 0.0705405194 0.2466925953 0.3084703801 0.1891935378 0.2289507025 0.3679944541 0.1253843463 0.2759545293 0.2814536558 0.0906643060 0.2632398644 0.3405066891 0.1488862608 -0.0600491516 0.3666348148 0.1075878507 -0.0864804125 0.3945504785 0.1950889321 -0.1093471690 0.3975890046 0.1978197169 -0.1068076644 0.4009901251 0.2006466113 -0.1040637625 0.4046083740 0.1981093598 -0.1030182380 0.3894257284 0.2276743351 -0.0372460238 0.3987168398 0.2321243623 -0.0349498920 0.5435593090 0.4975854589 -0.0436296668 0.6265521993 0.3933630780 0.0230778093 0.9108944526 0.5637634298 -0.2790742765 0.9026252041 0.5692518845 -0.2786579876 0.9078953084 0.5673620835 -0.2827183380 0.8358207607 0.0622080481 -0.0676813290 0.8066247408 0.0819112431 -0.0345871160 0.7991431484 0.0845383181 -0.0337800168 0.9121805718 0.1015905450 -0.0478375221 0.9212577480 0.1138930695 -0.0433691383 0.8207588381 0.1844371616 -0.1332213092 0.8257772619 0.1876748055 -0.1314398896 0.5159265882 0.1682002243 0.3140384906 1.0810392045 0.5669356628 -0.0027616030 1.0096381971 0.5727954200 0.0625335410 1.0189248832 0.4434315386 0.0069372369 1.0197335683 0.4384523445 0.0027805635 1.0138593796 0.4368123992 0.0052391289 0.9902345151 0.3545743819 -0.0726173730 0.4438721803 0.9318674473 -0.0568947856 0.9393600082 0.6296600880 0.0495710090 0.8103126461 0.5991298941 0.0652042201 0.2804329513 0.9328791543 0.1725124672 0.2644637210 0.3169100312 -0.0823789546 0.3805408556 0.3010089253 -0.1317256172 0.3320739741 0.4502986332 -0.1018762486 0.3368327384 0.4280173248 0.1891806299 0.4678423178 0.3995154803 0.2061681315 0.2336994145 0.1937392685 0.2417307199 0.2797798137 0.2271513747 0.2383196658 0.4272380065 0.9154020364 0.3326226971 0.6687200965 0.1642804756 0.2521935141 0.6724112915 0.1619509844 0.2491442996 0.5847915025 0.1745005610 0.1837479677 0.6974038770 0.9195693368 0.0845195308 0.7102148145 0.9135427336 0.0082625861 1.0184263285 0.2845488813 -0.1422348296 1.0298041298 0.3559956748 -0.0093095203 0.6784755603 0.7870916641 0.3069924282 0.6383629723 0.7950398955 0.3725183785 0.6504797210 0.8231557798 0.3697102532 0.4157140763 0.9108308553 0.0274821998 0.4174023023 0.9148020407 0.0291298413 0.4708374274 0.8236612252 -0.0166002058 0.5268805811 0.9422571010 0.0367414831 0.5402267443 0.9414891528 0.0300346472 0.5195741942 0.9198453673 0.0031893820 0.1541692668 0.2614243525 -0.0424956018 0.2373103772 0.1754272377 -0.0767435501 0.9343152369 0.8837216247 -0.0125906405 0.9902368579 0.8665862828 0.0747433337 0.9837084114 0.8458823477 0.0750243514 0.9831963377 0.6432291388 0.1219633561 0.9820152933 0.6463707384 0.1173598992 1.0139531400 0.3415117943 0.0283751226 0.2575026118 0.2284558292 0.2545875785 0.7830901936 0.0498811488 0.0352885128 0.7867554564 0.0438190779 0.0301616184 0.9733912261 0.1594780367 -0.0024509138 0.9646167622 0.1645635721 -0.0002072793 0.9258497036 -0.0002886832 -0.0183565739 0.9204227892 0.0035908154 -0.0106844945 0.4146196385 0.1707735453 -0.1702032669 0.9919025592 0.8401175936 -0.1028394736 0.9186712086 0.8691516435 -0.1279512028 0.9187434866 0.8745668560 -0.1227062534 0.9158513003 0.8773455821 -0.1196512648 0.9187969988 0.8801447894 -0.1173207383 0.9129777417 0.8802099226 -0.1164969384 0.9158123582 0.8831943022 -0.1140093860 0.9127843905 0.8866032781 -0.1103254514 0.1661945636 0.2454090174 -0.0132275362 0.9082907600 0.1050931307 -0.2966727212 0.9224397929 0.1397482414 -0.2611905506 0.9148615263 0.1198670478 -0.2815775525 0.9169011596 0.1263432509 -0.2749202679 0.7372927227 0.0417505934 0.0888566877 0.7245848749 0.0417367368 0.0899308300 0.6458565718 0.0681055399 0.0760968036 0.9674196086 0.2663921511 -0.2480745101 0.9543078410 0.2705267195 -0.2429412187 0.2785776302 0.6711966512 -0.0487508674 0.4329218859 0.5495949406 -0.0961753287 0.5650210204 0.5016771355 -0.1565565066 0.3264068902 0.4842270583 0.3399412564 0.3091180586 0.4894679492 0.3375315685 0.2416369052 0.3707856740 0.2528949641 0.2556126425 0.3441508126 0.3190018812 0.2466634351 0.3609393202 0.2533787625 0.4982026506 0.8226855357 0.3361808780 0.4950911596 0.8528248459 0.3314111135 0.5244791041 0.0672884295 0.2551074443 0.4821638850 0.0511607636 0.3025775598 0.4742974806 0.0525459996 0.3140721200 0.1959600227 0.4297320054 0.1647152560 0.2167116386 0.4821914350 0.1183877204 0.2096107705 0.4804137136 0.1177265482 0.6669028565 -0.0112889434 0.2180326622 0.6073461454 0.9237343181 0.0122059720 0.6001905360 0.9185750226 0.0098847658
        </DataArray>
      </Points>
      <Cells>
        <DataArray type="Int32" Name="connectivity" format="ascii">
 0 1 2 3 4 5 6 7 8 9 10 11 12 13 14 15 16 17 18 19 20 21 22 23 24 25 26 27 28 29 30 31 32 33 34 35 36 37 38 39 40 41 42 43 44 45 46 47 48 49 50 51 52 53 54 55 56 57 58 59 60 61 62 63 64 65 66 67 68 69 70 71 72 73 74 75 76 77 78 79 80 81 82 83 84 85 86 87 88 89 90 91 92 93 94 95 96 97 98 99 100 101 102 103 104 105 106 107 108 109 110 111 112 113 114 115 116 117 118 119 120 121 122 123 124 125 126 127 128 129 130 131 132 133 134 135 136 137 138 139 140 141 142 143 144 145 146 147 148 149 150 151 152 153 154 155 156 157 158 159 160 161 162 163 164 165 166 167 168 169 170 171 172 173 174 175 176 177 178 179 180 181 182 183 184 185 186 187 188 189 190 191 192 193 194 195 196 197 198 199 200 201 202 203 204 205 206 207 208 209 210 211 212 213 214 215 216 217 218 219 220 221 222 223 224 225 226 227 228 229 230 231 232 233 234 235 236 237 238 239 240 241 242 243 244
        </DataArray>
        <DataArray type="Int32" Name="offsets" format="ascii">
 1 2 3 4 5 6 7 8 9 10 11 12 13 14 15 16 17 18 19 20 21 22 23 24 25 26 27 28 29 30 31 32 33 34 35 36 37 38 39 40 41 42 43 44 45 46 47 48 49 50 51 52 53 54 55 56 57 58 59 60 61 62 63 64 65 66 67 68 69 70 71 72 73 74 75 76 77 78 79 80 81 82 83 84 85 86 87 88 89 90 91 92 93 94 95 96 97 98 99 100 101 102 103 104 105 106 107 108 109 110 111 112 113 114 115 116 117 118 119 120 121 122 123 124 125 126 127 128 129 130 131 132 133 134 135 136 137 138 139 140 141 142 143 144 145 146 147 148 149 150 151 152 153 154 155 156 157 158 159 160 161 162 163 164 165 166 167 168 169 170 171 172 173 174 175 176 177 178 179 180 181 182 183 184 185 186 187 188 189 190 191 192 193 194 195 196 197 198 199 200 201 202 203 204 205 206 207 208 209 210 211 212 213 214 215 216 217 218 219 220 221 222 223 224 225 226 227 228 229 230 231 232 233 234 235 236 237 238 239 240 241 242 243 244 245
        </DataArray>
        <DataArray type="UInt8" Name="types" format="ascii">
 1 1 1 1 1 1 1 1 1 1 1 1 1 1 1 1 1 1 1 1 1 1 1 1 1 1 1 1 1 1 1 1 1 1 1 1 1 1 1 1 1 1 1 1 1 1 1 1 1 1 1 1 1 1 1 1 1 1 1 1 1 1 1 1 1 1 1 1 1 1 1 1 1 1 1 1 1 1 1 1 1 1 1 1 1 1 1 1 1 1 1 1 1 1 1 1 1 1 1 1 1 1 1 1 1 1 1 1 1 1 1 1 1 1 1 1 1 1 1 1 1 1 1 1 1 1 1 1 1 1 1 1 1 1 1 1 1 1 1 1 1 1 1 1 1 1 1 1 1 1 1 1 1 1 1 1 1 1 1 1 1 1 1 1 1 1 1 1 1 1 1 1 1 1 1 1 1 1 1 1 1 1 1 1 1 1 1 1 1 1 1 1 1 1 1 1 1 1 1 1 1 1 1 1 1 1 1 1 1 1 1 1 1 1 1 1 1 1 1 1 1 1 1 1 1 1 1 1 1 1 1 1 1 1 1 1 1 1 1 1 1 1 1 1 1
        </DataArray>
      </Cells>
      <PointData Scalars="overlap">
        <DataArray type="Float32" Name="overlap" format="ascii">
 0.0001998484 0.0007839690 0.0000326019 0.0000278331 0.0000806595 0.0000289660 0.0000083274 0.0000404813 0.0002385099 0.0002503811 0.0000833334 0.0000152441 0.0002847017 0.0000096194 0.0002182574 0.0000580661 0.0001786037 0.0000882963 0.0002365782 0.0001966089 0.0000555804 0.0001143871 0.0000822271 0.0000506327 0.0000725541 0.0000393082 0.0000843780 0.0000131406 0.0001589534 0.0000851851 0.0000492500 0.0001333189 0.0001011402 0.0001621338 0.0000095136 0.0000048776 0.0000934107 0.0000042191 0.0000289304 0.0001457222 0.0000434972 0.0000828339 0.0001942146 0.0000116580 0.0001169591 0.0000150966 0.0000045962 0.0000087921 0.0002605361 0.0002626343 0.0000329479 0.0001120210 0.0000102704 0.0000966618 0.0002179711 0.0000975366 0.0002481037 0.0000399287 0.0000743395 0.0000794042 0.0001034300 0.0000218139 0.0000669162 0.0001638932 0.0000286302 0.0000458842 0.0000060684 0.0000082962 0.0000531653 0.0000445967 0.0000601571 0.0000902682 0.0000075524 0.0000068315 0.0000323139 0.0000306873 0.0000033907 0.0000119448 0.0000002006 0.0000846231 0.0000463931 0.0000585251 0.0000106127 0.0000215471 0.0000488860 0.0000381601 0.0000702017 0.0000165467 0.0000336189 0.0000824459 0.0000956671 0.0001064222 0.0000876426 0.0000729579 0.0001036620 0.0000165434 0.0000338485 0.0000209801 0.0000241519 0.0000399885 0.0000060483 0.0000814452 0.0000246356 0.0001015117 0.0000820439 0.0000610324 0.0000078875 0.0000495970 0.0001027463 0.0000727018 0.0000245691 0.0001031925 0.0000016822 0.0000385752 0.0000037632 0.0001105292 0.0000321957 0.0000072562 0.0000446791 0.0001710740 0.0000206337 0.0001062169 0.0000156388 0.0001285391 0.0000331077 0.0000362350 0.0001334044 0.0000577190 0.0002028602 0.0000291390 0.0000383016 0.0000019980 0.0000042708 0.0000840411 0.0000610000 0.0000382822 0.0000573035 0.0001692345 0.0000833069 0.0000140184 0.0000849056 0.0000760354 0.0000076081 0.0000807109 0.0000566075 0.0000030288 0.0000112877 0.0000179703 0.0001030841 0.0000216682 0.0000490617 0.0000094306 0.0000523817 0.0000761277 0.0000512327 0.0002050671 0.0000254522 0.0000148184 0.0000028724 0.0000055010 0.0000318824 0.0000229343 0.0000471627 0.0000299853 0.0000202086 0.0000755962 0.0000032420 0.0000271870 0.0000831529 0.0000417181 0.0002016092 0.0000319867 0.0000159209 0.0000232723 0.0000588254 0.0000352325 0.0000099441 0.0000866589 0.0000212281 0.0000151236 0.0000330113 0.0000311030 0.0000123856 0.0000356850 0.0000110525 0.0000698880 0.0000034156 0.0000058765 0.0000048047 0.0000363398 0.0000819977 0.0000098155 0.0001100712 0.0000914924 0.0000816446 0.0000044404 0.0000152068 0.0000206352 0.0000167737 0.0000281214 0.0000171126 0.0000330142 0.0000065213 0.0000061835 0.0000259621 0.0000241666 0.0000440168 0.0002031934 0.0000195602 0.0000030195 0.0000367891 0.0000465350 0.0000191047 0.0000238643 0.0000439283 0.0000355024 0.0000262074 0.0000124950 0.0000243235 0.0000368154 0.0000280732 0.0000380065 0.0000304013 0.0000233015 0.0000026915 0.0000244469 0.0000048240 0.0000189719 0.0000271444 0.0000625294 0.0000234269 0.0000466027 0.0000913514 0.0000353912 0.0000332730 0.0000235877 0.0000094712 0.0000644519 0.0000203512 0.0000343675 0.0000098693 0.0000149930 0.0000362085 0.0000071955 0.0001107703
        </DataArray>
        <DataArray type="Float32" Name="contact normal" NumberOfComponents="3" format="ascii">
 0.8703061585 -0.2277431075 -0.4366924174 -0.1633458382 0.7743036580 -0.6113689412 0.4230066778 0.6906764414 0.5865419029 -0.3127848569 0.8031330633 -0.5070926109 -0.2037601591 0.0652792457 -0.9768420638 -0.0842287250 -0.0069808501 -0.9964219937 0.4330743517 -0.7734249982 -0.4628826829 -0.5076474847 0.7311584366 -0.4557426597 -0.4517095046 0.7692173715 -0.4519548194 -0.3229786553 -0.9007736123 -0.2903303077 -0.7006762649 0.4837761343 0.5244172230 0.0994341035 -0.5445978194 0.8327821288 0.1377869244 -0.4844582087 0.8638952526 -0.3078838387 0.1819487832 -0.9338641133 -0.2879573760 0.0239588498 -0.9573434719 -0.6231097360 -0.0790984881 0.7781244670 -0.5163426869 0.6201749472 -0.5905702876 0.6593494229 -0.2852267201 0.6956321274 0.6762691592 -0.2903779031 0.6770086393 -0.8599247322 -0.0992984230 -0.5006688307 -0.8478342256 -0.0692957548 -0.5257140137 -0.3446262503 -0.2334717955 -0.9092434593 0.0010334143 -0.9927866174 0.1198902181 -0.7766101935 -0.5935880474 0.2110209408 0.5835733406 0.6981322400 0.4147933601 0.5892902923 0.5316816307 -0.6083186623 0.6211248199 0.4923256533 -0.6097699642 -0.7321721886 -0.3527823341 -0.5826392632 -0.1030062687 -0.0842439408 -0.9911067889 -0.6137428986 0.7894712917 -0.0073982448 -0.2679560412 0.6219946715 0.7357460082 -0.4250446468 0.0629950951 -0.9029776665 -0.0607504475 0.6703781750 0.7395285563 -0.5980501711 0.7111226649 0.3696492234 0.1633066187 -0.7249702035 -0.6691406073 0.1892527234 -0.6809553554 -0.7074483802 0.4771004289 0.1272111665 0.8695932957 -0.2869621678 -0.7036971803 0.6499715322 0.5133694756 -0.8179904089 -0.2595062088 0.4952967445 -0.8274361085 -0.2646329934 0.6228031707 0.7823737110 -0.0027544428 0.4297906914 0.7875726167 -0.4415986130 0.3136375128 -0.4742413415 0.8226339773 0.9164087342 -0.1309265783 0.3782238267 -0.3713234003 0.3102027254 -0.8751532446 -0.3645889956 0.3101940977 -0.8779831924 -0.2657717782 0.7500312868 -0.6056553730 -0.3630867446 0.3201249477 -0.8750360185 0.0501419940 0.5109595760 0.8581410677 0.2307344677 -0.4458219075 -0.8648724948 0.2947773943 -0.9292148815 0.2228586815 -0.6218852004 0.4186420797 -0.6618138761 -0.6446392730 0.7093302989 -0.2851153007 0.4740534448 -0.6258313039 -0.6193613731 -0.2076032774 -0.1491728323 -0.9667721269 -0.0423383969 -0.1575740013 -0.9865991558 0.0452784100 -0.7666106003 0.6405138976 -0.4383147731 -0.0102340451 -0.8987632747 -0.1747914306 0.7908787050 -0.5864800336 -0.0521719437 0.2477785492 -0.9674109152 -0.1668817837 0.6309592781 0.7576548420 0.0381648398 0.8729486041 -0.4863169539 -0.6175118478 -0.7321211877 0.2875372746 0.3450118217 -0.4480883018 0.8247325122 0.3254957752 -0.3378311215 0.8831322855 0.1096047705 0.6115011746 -0.7836154081 0.1400838438 0.6419621146 -0.7538309891 0.0905094911 0.6889037795 -0.7191798208 -0.5097178890 -0.7616250806 -0.4001436120 -0.0381004602 0.9359370048 0.3501003828 -0.3871721772 0.7173557702 0.5792222407 -0.1901521145 -0.5969399464 0.7794259899 0.1363912509 0.6069890743 -0.7829186997 0.1880135883 0.6035072566 -0.7748741071 0.1363750832 0.6069899014 -0.7829208749 0.1363707758 0.6069901216 -0.7829214544 0.1363708666 0.6069901170 -0.7829214422 0.1362665251 0.6069954489 -0.7829354757 0.1362640418 0.6069955977 -0.7829357925 0.3360631042 -0.5688634774 0.7506370188 0.3362504426 -0.5620329493 0.7556815492 -0.2642956245 -0.8895933048 -0.3725205697 0.5068405767 -0.6074745614 -0.6116267547 0.1545268453 -0.2810186303 -0.9471800164 0.0959728536 0.0312382033 0.9948936556 0.0962863588 0.0308023576 0.9948769531 0.0964204757 0.0306163009 0.9948697070 0.0962411064 0.0308652665 0.9948793820 0.0968658994 0.0299965351 0.9948453173 0.0966811672 0.0302537546 0.9948554982 0.0967723611 0.0301387264 0.9948501230 0.0967987744 0.0303715433 0.9948404730 0.0964058466 0.0309896161 0.9948595662 -0.1555029675 -0.2089155194 -0.9654911356 0.0980047079 0.0313341246 0.9946925404 -0.0681873130 -0.1164191988 -0.9908567306 -0.0710627953 -0.1092156000 -0.9914746753 0.1810028626 -0.3149476753 -0.9316898226 0.8962877371 0.3283747023 0.2980576239 0.2188204502 0.4060194568 -0.8872800072 -0.0934757109 -0.0265183054 -0.9952683412 -0.0937540028 -0.0228264865 -0.9953336820 -0.1136311920 0.0075564085 -0.9934942641 -0.2580814325 0.5230734237 -0.8122734562 -0.3572129225 0.2699810415 -0.8941527639 0.7670282223 0.0942038635 -0.6346600178 0.7433935493 0.4911962729 0.4539738455 -0.7396443230 -0.6698189357 0.0653365806 -0.6556017989 -0.0862921130 -0.7501599513 -0.9085981952 0.3999958754 0.1202190475 -0.9057934013 0.4045427311 0.1260297302 0.3135839722 -0.4877753572 0.8147025796 0.4324897844 0.8705582778 -0.2346931430 -0.5926455910 -0.3984012356 -0.7000340413 0.0584359753 0.6002940086 -0.7976417367 0.2852301527 -0.1070664391 0.9524602551 0.3693342212 -0.1578669162 0.9157894244 -0.0832406108 -0.5063808797 -0.8582828237 -0.3713079764 0.4446037873 -0.8151428458 -0.3713177896 0.4446146291 -0.8151324621 -0.0832969191 -0.5061753761 -0.8583985740 -0.3713264742 0.4446242237 -0.8151232724 -0.0177027266 -0.9470251701 0.3206710787 0.4002902954 -0.1051557144 0.9103350785 -0.0835520574 -0.5058689853 -0.8585543800 -0.0847302093 -0.5058325746 -0.8584603649 -0.2283171288 -0.8481179371 0.4780870773 -0.8222443869 0.5411336448 0.1763194448 0.2704747341 0.2179790580 0.9377251988 -0.7927709809 0.5332016638 -0.2953136596 -0.2989273621 -0.6781371167 -0.6713959213 -0.1885907548 -0.1698603840 -0.9672543498 -0.7273868908 0.4507851444 0.5173983617 -0.6671470402 0.5344607636 -0.5189089698 0.3255122532 -0.5015260788 -0.8015693141 -0.0257043218 -0.0294614216 -0.9992353639 0.9436474410 0.1724121938 -0.2824952081 0.3945408149 0.0525487901 -0.9173746073 0.2407198434 0.9484082196 0.2063390559 -0.4810312316 -0.2943942312 0.8257971850 -0.4654695640 -0.2724599737 0.8420829221 -0.4620215158 -0.2766386819 0.8426192252 -0.4546615471 -0.2858578390 0.8435450038 0.1954461574 -0.4162127055 -0.8880133914 0.6230294231 -0.6763740342 -0.3928772122 0.9209612071 0.1512312494 0.3591094042 -0.2413185111 0.8147176549 0.5272575452 0.4947982654 0.7102834444 0.5006716541 0.4797040402 0.7579263102 0.4420766248 0.0259239879 0.7084693304 -0.7052653080 -0.0115405844 0.9315621333 0.3633989635 0.1097264639 0.6603718297 -0.7428789603 0.0856973152 0.6538360363 -0.7517675225 -0.5007348942 0.5599260132 -0.6601116765 -0.4913503281 0.5977340635 -0.6334736335 0.0193606561 -0.6235034599 0.7815808343 0.0188182669 -0.6138701468 0.7891826884 -0.5545351933 0.7261530660 -0.4064387336 -0.7371847930 -0.6743875782 -0.0419520599 0.4145862437 -0.6797467791 -0.6050310429 -0.5437456130 0.7478667302 -0.3808360044 -0.3673197304 0.4670928487 -0.8043012410 -0.4845236543 0.3798596796 -0.7879996525 -0.5202730289 0.8335943090 -0.1855707505 -0.8348142537 -0.5282813161 0.1549322851 -0.4748443072 0.4762691306 -0.7400612131 0.1248764248 0.5684065988 -0.8132157260 -0.7216952805 0.3810473403 0.5778917257 0.7027909763 0.6633606440 0.2569776249 -0.8813925381 0.2620535324 0.3930332555 -0.6422612302 -0.7322837904 -0.2264088392 0.6017351807 -0.7005125233 0.3836625822 -0.2980797655 0.1877558354 -0.9358932630 -0.1001795212 -0.2458102456 -0.9641272669 0.2096311571 -0.2837010831 -0.9357181592 0.3256611653 -0.0808799194 -0.9420208300 -0.3259724820 0.5001659443 -0.8022318674 -0.3236534599 0.4991947694 -0.8037742345 0.5672586683 -0.3354475862 0.7521253354 0.7209923827 -0.6376220591 -0.2713081161 0.7858481713 -0.1387697978 0.6026488155 -0.3253766244 -0.2459620022 0.9130349094 -0.1696905662 -0.4311409716 -0.8861842779 0.3999393124 0.0407536547 0.9156351271 0.4489573786 -0.2605808526 -0.8547133387 0.4582671702 -0.2611674022 -0.8495780063 -0.3093658166 0.3568320508 -0.8814554323 -0.2628271213 0.4012649562 -0.8774442086 0.0396658512 0.8913569917 -0.4515632111 -0.6444298914 -0.0120585549 -0.7645683137 -0.5428392508 0.2071734315 -0.8138824958 -0.0882269980 -0.3726372502 0.9237734985 0.0148678254 0.4596128579 -0.8879949147 0.0446238611 0.3382079152 -0.9400128282 0.4155430125 -0.5047988643 0.7566386927 -0.5477957535 0.1654335112 -0.8200924130 -0.4995025787 0.1476005210 -0.8536458634 0.4330053543 -0.6858232774 -0.5849382833 0.4292163728 -0.6861379819 -0.5873567699 -0.2658262688 0.9451777959 -0.1896716345 -0.4700752618 -0.7490130322 0.4669140455 -0.0834721049 0.4577160622 -0.8851714038 -0.0857232275 0.4432640026 -0.8922827759 0.1089010600 -0.6813312183 -0.7238289371 -0.7217620595 -0.4307485478 -0.5417704477 0.1284162466 0.8217625206 -0.5551717098 0.1042368240 0.8501528806 -0.5161150687 -0.5702557139 0.8164682050 0.0904880708 0.8801032288 -0.2113269344 0.4251578924 0.0557746052 -0.7122071262 0.6997501003 0.0615951231 -0.7092046668 0.7023067574 0.0615260566 -0.7092410163 0.7022761032 0.0997654142 -0.6881149851 0.7187103932 0.0620770728 -0.7102293811 0.7012279681 0.0993432554 -0.6877752254 0.7190939834 0.0994969328 -0.6876959350 0.7191485669 0.9867288820 0.1614890547 0.0169528335 0.0265027418 -0.7205750201 0.6928702945 0.0264958806 -0.7205572164 0.6928890721 0.0265143953 -0.7205607041 0.6928847369 0.0264998429 -0.7205579627 0.6928881444 -0.0744127394 0.8230823899 -0.5630258641 -0.1698316531 0.3856094612 -0.9068972119 0.5927900218 -0.4735492911 0.6514223353 0.9055472007 -0.4200942022 0.0592041255 -0.6830576591 -0.7282490566 -0.0555476900 0.8586236923 -0.2919355955 -0.4213537269 -0.3304279191 0.8663805820 -0.3744356786 -0.2404919506 -0.1896807370 0.9519374137 -0.1281774396 -0.9899565344 -0.0596372706 -0.1084331922 -0.0438710653 -0.9931352237 0.2892369483 0.2909727533 0.9119631816 0.3367430831 0.7574282818 -0.5593804554 0.4859778416 0.2555493817 0.8357751198 -0.0660203495 -0.1068288100 -0.9920831209 -0.1375640587 -0.0801677963 -0.9872432599 -0.8741598411 0.4442723958 -0.1961290662 -0.7347503426 0.3394211363 -0.5873118646 -0.7744624152 0.3536010373 -0.5245705614 -0.5988707454 -0.6868462602 0.4118204041 -0.0247736309 0.5504331556 -0.8345115987 -0.0699738301 0.5379497615 -0.8400676861 0.4087561058 0.1534035953 -0.8996587036 -0.0765800635 -0.2738275496 0.9587251780 -0.0808299358 -0.3236511065 0.9427176050
        </DataArray>
        <DataArray type="Float32" Name="contact force" NumberOfComponents="3" format="ascii">