<?xml version="1.0"?>
<VTKFile type="UnstructuredGrid" version="0.1" byte_order="LittleEndian">
  <UnstructuredGrid>
    <FieldData>
      <DataArray type="Float32" Name="TIME"  NumberOfTuples="1" format="ascii"> 0.6000000000 </DataArray>
      <DataArray type="Int32"   Name="STEP"  NumberOfTuples="1" format="ascii"> 60000 </DataArray>
    </FieldData>
    <Piece NumberOfPoints="240" NumberOfCells="240">
      <Points>
        <DataArray type="Float32" NumberOfComponents="3" format="ascii">
 0.7412547435 0.2200285095 -0.5732854103 0.8554293481 0.1491062278 -0.5427470937 0.7810691678 0.1436650509 -0.6783608025 0.8661742577 0.1452629608 -0.5598885064 0.9071417171 0.1110742044 -0.7078507369 0.9293052079 0.3572174032 -0.5555108466 0.9402417665 0.3508608577 -0.5630738620 0.9510748342 0.4394574910 -0.5774083456 1.0167045879 0.1733945119 -0.7598234029 1.0249927149 0.1794492416 -0.7607964749 1.0118650636 0.4468433605 -0.6725594651 1.0184160416 0.4467581657 -0.6866110335 1.0691794823 0.2271389834 -0.8472652171 0.9819789028 0.3790008174 -0.8441300007 0.9914915187 0.3754883576 -0.8538559914 1.0123165957 0.3894320057 -0.8641581471 1.1423101561 0.3690215449 -0.7367889625 1.1577140059 0.3540019939 -0.8322025551 1.4006271766 0.2465769540 -0.3840413787 1.3537038780 0.3047763491 -0.4757719660 1.3534127030 0.3000597242 -0.4841924662 1.4610219959 0.4875601775 -0.5605620835 1.4622460817 0.4976071667 -0.5793842095 1.4608032969 0.4781425386 -0.5807121798 1.4325724214 0.2582963261 -0.6035778250 1.4347136357 0.2713815819 -0.6121073759 1.4090772651 0.4381479511 -0.6826575212 1.4003538708 0.4210366133 -0.6671632059 0.5915583108 0.9205081003 -0.2690225257 0.6082152990 0.7420275006 -0.3418970023 0.7017241274 0.8336736424 -0.3973089034 0.7071025179 0.8250686232 -0.4018876304 0.6028991189 0.8146254140 -0.2161517320 1.0227688022 0.7443180536 -0.5224702178 1.1133664485 0.7356105703 -0.5930457930 1.0183795579 0.7302186912 -0.6407633763 1.0226496087 0.7336180802 -0.6444010011 1.0176341533 0.7357795047 -0.6476257432 0.8847647909 0.7658410999 -0.5896732106 1.1290838681 0.8381850200 -0.6508526566 0.9671055229 0.8432972977 -0.5656563546 0.9619662316 0.8446293117 -0.5709610429 0.9705994914 0.8480005461 -0.5712787439 0.9659934372 0.8495118157 -0.5769294798 0.9619590484 0.8514915072 -0.5833033607 0.7696463705 0.4689202040 -0.2031486634 0.8495711112 0.4583519363 -0.1168126791 0.7078733189 0.6582815588 -0.2218634261 0.9325693825 0.5214240360 -0.1739349010 0.9400423874 0.5200489922 -0.1837372969 0.9461777071 0.5354870110 -0.1836038431 0.9523399398 0.5332909031 -0.1921572899 0.8322105161 0.4484182728 -0.3307987127 0.8233576221 0.7503322040 -0.0861952640 0.9674203390 0.5416262115 -0.2062884570 0.8241335528 0.7765148149 -0.3010569944 1.0167459267 0.5025916843 -0.3141357714 1.0364066151 0.8036702106 -0.2340578137 0.9726195815 0.8935938286 -0.4027281465 1.2984004708 0.2892265564 -0.4731043912 1.3039206119 0.2859058279 -0.4852610003 1.0920294434 0.2198972406 -0.6318063726 1.1788883635 0.1224703324 -0.5144102919 1.1872345951 0.3475660661 -0.6166623623 1.0208558595 0.2978318691 -0.5047210215 1.0828132108 0.1994886942 -0.3894250833 0.9791089503 0.2448212462 -0.4210548956 1.2359311622 0.5422270686 -0.3181138010 0.5980588974 0.4594727665 -0.4195833942 0.5924479089 0.4551547492 -0.4090402009 0.5924419283 0.4864897209 -0.2915611588 0.5991193169 0.4952667177 -0.2863966139 0.5969338121 0.5042751288 -0.2782742637 0.6032143031 0.5109197132 -0.2748129957 0.6009241391 0.5185884935 -0.2677172740 0.6046835698 0.5314743616 -0.2582860047 0.6023676031 0.5392633080 -0.2511014352 0.5722461157 0.6284312830 -0.3289600201 0.5772330180 0.6329899791 -0.3307798206 0.6356019287 0.6706290740 -0.2034045202 0.6319682014 0.6794482565 -0.2121039445 0.7277884031 0.3039039501 -0.3341995502 0.7228446293 0.2958478027 -0.3308313942 0.7333837729 0.3038850311 -0.3378087967 0.7165213130 0.2906204983 -0.3266344467 0.7286815565 0.2944519339 -0.3345547403 0.7387132074 0.3057166672 -0.3412862361 0.7440164453 0.3095175186 -0.3447908096 0.7495680460 0.3156773597 -0.3485037933 0.7557400630 0.3249861960 -0.3526678316 0.6149586491 0.3268893492 -0.1909359800 0.7622005607 0.3225121668 -0.3567895038 0.8235135318 0.3213725379 -0.2966336144 0.6378982421 0.2503445261 -0.1848398251 0.5861292592 0.1789763310 -0.2093871368 0.5968055765 0.1542351970 -0.2183088722 0.6653038078 0.0647890147 -0.2040593871 0.7994159326 0.1231710186 -0.2681541655 0.8135410782 0.1409197210 -0.2773251087 0.8201744688 0.1501755774 -0.2816294523 0.8273513133 0.1541719500 -0.2863511184 1.3085140214 0.1438694753 -0.6366133391 1.2551324832 0.0693979677 -0.6385357914 1.3351161709 0.0897023552 -0.4505807865 0.8942693507 0.2422269864 -0.2342885149 0.9307068566 0.3516162743 -0.2294589950 1.2522500806 0.6866234416 -0.3801960187 1.3229086894 0.8014532357 -0.4177919896 1.2932348756 0.6621435384 -0.5171870706 1.2907538173 0.6650292105 -0.5230708878 1.2946823344 0.6710059354 -0.5213457782 1.2259260431 0.7433005356 -0.5360530455 0.9518164917 0.5088164220 -0.5520652690 1.0258057951 0.5059762368 -0.5542677624 1.0322182447 0.5247615167 -0.5499297337 1.0401276965 0.5163119613 -0.5596826728 0.9207987824 0.5506980617 -0.6849647376 0.9269292224 0.5653968996 -0.6883084875 0.9357812155 0.5619102530 -0.6985893637 1.1367668528 0.6417666255 -0.6470679819 1.1641169205 0.4527888145 -0.7204743827 1.1725974768 0.4623488737 -0.7235619081 1.1457297079 0.6435517384 -0.6538452435 1.1808105887 0.4716518112 -0.7267091941 1.0537322748 0.7344990955 -0.7486819525 1.1554273223 0.6456436710 -0.6612726967 1.0610264348 0.7319478444 -0.7581991649 1.1664757645 0.6482959249 -0.6698860015 1.1278264021 0.7527826391 -0.7465332662 1.1183488038 0.6172115364 -0.8575817940 1.2092640400 0.5397637707 -0.8243033654 1.1326722941 0.6281542178 -0.8701881132 1.2802057997 0.6478986765 -0.7661356453 1.2510310225 0.7003733511 -0.7773919906 1.2848008550 0.6412098219 -0.7797940206 0.9561976166 0.1430672009 -0.3091206551 0.9433607421 0.0516975511 -0.2406171012 0.7815006869 0.1666099235 -0.1756143803 0.8499101530 0.1076259781 -0.1580670708 0.7746086609 0.0670643975 -0.1349288972 0.7664824937 0.0753358115 -0.1445458780 1.4775196037 0.3834040238 -0.5608923319 0.6778345551 0.1315288084 -0.4478590614 0.6763879264 0.0950411476 -0.4863338717 0.6980167111 0.1835814207 -0.5142820504 0.7011456485 0.1808847939 -0.5150705098 0.7049248386 0.1835756685 -0.5141355432 0.7081651228 0.1809153228 -0.5148906657 0.7090315509 0.1863527919 -0.5131740225 0.7324724016 0.2098682965 -0.4487514868 0.6150376374 0.9447437416 -0.1927566629 0.8615998636 0.4831875139 -0.5192527974 1.0796027535 0.5610334870 -0.8948226126 1.0723624198 0.5662749243 -0.8904906224 1.1171106165 0.0551411756 -0.6827178297 1.1059418916 0.0737929175 -0.6395553832 1.0996136614 0.0762387930 -0.6353718201 1.1935023156 0.0960415382 -0.6990833691 1.2034284417 0.1084978076 -0.6989955296 1.0719094326 0.1777224353 -0.7316361511 1.0771369961 0.1810550266 -0.7322744301 1.3574194555 0.5644934109 -0.7265079824 1.3236222179 0.5680374320 -0.6357573701 1.3084173432 0.4395737920 -0.6920233075 1.3073166039 0.4346467771 -0.6962050762 1.3032303078 0.4328474623 -0.6913711643 1.2479197667 0.3509672790 -0.7514831801 0.7555118239 0.9177873488 -0.4823351335 1.2544439298 0.6235429143 -0.6142045076 0.7127811153 0.9112883387 -0.2014089485 0.7197174771 0.9099422046 -0.1977123459 0.5982467173 0.2969914230 -0.4300582632 0.6791090078 0.2843030100 -0.5272475661 0.7207203745 0.1693250080 -0.1301658737 0.7596449461 0.2038606003 -0.1534775927 0.6720919664 0.2836840384 -0.1807783131 1.0666976627 0.0214566769 -0.4270361696 0.9237471728 0.8940524491 -0.1228365678 1.1043155767 0.2166487345 -0.3001998930 1.1141972513 0.2135137057 -0.3044629495 1.1128863030 0.1499979663 -0.3198726017 1.1148544659 0.1477515717 -0.3242805536 1.0068696394 0.1586087950 -0.3423960104 1.0506497957 0.9064973879 -0.4660175524 1.0273013862 0.9023378581 -0.5398338077 1.2465634130 0.2862890259 -0.8302828982 1.1373338649 0.7719434807 -0.2627441635 1.1314259423 0.7782718316 -0.1860144042 0.8043518766 0.8074087278 -0.4553138795 0.8769238676 0.9265082512 -0.4310543496 0.8857640180 0.9261096315 -0.4431246066 0.8554355539 0.9043239592 -0.4579528779 0.5193312469 0.2386775085 -0.3453278010 0.5788511425 0.1549790352 -0.4155555715 1.2177583720 0.8779729444 -0.6617372832 1.2103610246 0.8821223932 -0.6531033419 1.3021974630 0.8402207496 -0.6070945865 1.3229614142 0.6329565962 -0.5662026708 1.3262478742 0.6371408093 -0.5693915050 1.3230467048 0.6403127534 -0.5728766988 1.3153535678 0.3372190054 -0.6728711606 0.7475114876 0.2042257884 -0.1291702933 1.1172997354 0.0403121489 -0.5674101527 1.1183206039 0.0343975089 -0.5737686622 1.2206960660 -0.0058870526 -0.6812021950 1.2193032315 -0.0022036254 -0.6718304812 0.9560870255 0.4581132351 -0.1734539578 0.7754305676 0.3242173142 -0.5428956724 1.2277080192 0.8367536862 -0.7708686293 0.5434780800 0.2225709088 -0.3251900582 0.9883920201 0.4917208177 -0.0993204893 0.8426474714 0.6300781335 0.0064708674 1.0675824617 0.0917779943 -0.9258475843 1.0763874167 0.1020231356 -0.9185673125 1.0786609385 0.1071722364 -0.9135840004 1.0813913799 0.1111214274 -0.9103543223 1.0847242256 0.1142620716 -0.9084896848 1.0888968210 0.1168021652 -0.9078714672 1.1012793120 0.0306507889 -0.4989887152 1.0904698297 0.0303372240 -0.4922289513 1.1224428721 0.0337834971 -0.5094728987 1.0137130177 0.0550459413 -0.4680835329 1.1485188842 0.2643007085 -0.8997190397 0.6209323013 0.6510409568 -0.3992435410 0.6110560803 0.6393928646 -0.4005891662 0.7659634243 0.6651539337 -0.4323160694 0.7384854260 0.5335627795 -0.5142768886 0.8289445523 0.4889804661 -0.6292794124 0.8161516660 0.4914226573 -0.6264215173 0.7718197129 0.3235839494 -0.0645991488 0.7304893875 0.3381244460 -0.1165618951 0.9874056866 0.0494399032 -0.2534049572 0.9694876627 0.0304985285 -0.1866553717 0.9696267572 0.0318826196 -0.1828857253 1.1783919334 0.0039852809 -0.5235573454 0.6485289564 0.4053222000 -0.1765730884 0.6451071563 0.4587646119 -0.2262425330 0.6385143335 0.4568380445 -0.2236262508 1.0984445310 -0.0255168416 -0.3530869348 0.9300588663 0.9046153051 -0.4886459740
        </DataArray>
      </Points>
      <Cells>
        <DataArray type="Int32" Name="connectivity" format="ascii">
 0 1 2 3 4 5 6 7 8 9 10 11 12 13 14 15 16 17 18 19 20 21 22 23 24 25 26 27 28 29 30 31 32 33 34 35 36 37 38 39 40 41 42 43 44 45 46 47 48 49 50 51 52 53 54 55 56 57 58 59 60 61 62 63 64 65 66 67 68 69 70 71 72 73 74 75 76 77 78 79 80 81 82 83 84 85 86 87 88 89 90 91 92 93 94 95 96 97 98 99 100 101 102 103 104 105 106 107 108 109 110 111 112 113 114 115 116 117 118 119 120 121 122 123 124 125 126 127 128 129 130 131 132 133 134 135 136 137 138 139 140 141 142 143 144 145 146 147 148 149 150 151 152 153 154 155 156 157 158 159 160 161 162 163 164 165 166 167 168 169 170 171 172 173 174 175 176 177 178 179 180 181 182 183 184 185 186 187 188 189 190 191 192 193 194 195 196 197 198 199 200 201 202 203 204 205 206 207 208 209 210 211 212 213 214 215 216 217 218 219 220 221 222 223 224 225 226 227 228 229 230 231 232 233 234 235 236 237 238 239
        </DataArray>
        <DataArray type="Int32" Name="offsets" format="ascii">
 1 2 3 4 5 6 7 8 9 10 11 12 13 14 15 16 17 18 19 20 21 22 23 24 25 26 27 28 29 30 31 32 33 34 35 36 37 38 39 40 41 42 43 44 45 46 47 48 49 50 51 52 53 54 55 56 57 58 59 60 61 62 63 64 65 66 67 68 69 70 71 72 73 74 75 76 77 78 79 80 81 82 83 84 85 86 87 88 89 90 91 92 93 94 95 96 97 98 99 100 101 102 103 104 105 106 107 108 109 110 111 112 113 114 115 116 117 118 119 120 121 122 123 124 125 126 127 128 129 130 131 132 133 134 135 136 137 138 139 140 141 142 143 144 145 146 147 148 149 150 151 152 153 154 155 156 157 158 159 160 161 162 163 164 165 166 167 168 169 170 171 172 173 174 175 176 177 178 179 180 181 182 183 184 185 186 187 188 189 190 191 192 193 194 195 196 197 198 199 200 201 202 203 204 205 206 207 208 209 210 211 212 213 214 215 216 217 218 219 220 221 222 223 224 225 226 227 228 229 230 231 232 233 234 235 236 237 238 239 240
        </DataArray>
        <DataArray type="UInt8" Name="types" format="ascii">
 1 1 1 1 1 1 1 1 1 1 1 1 1 1 1 1 1 1 1 1 1 1 1 1 1 1 1 1 1 1 1 1 1 1 1 1 1 1 1 1 1 1 1 1 1 1 1 1 1 1 1 1 1 1 1 1 1 1 1 1 1 1 1 1 1 1 1 1 1 1 1 1 1 1 1 1 1 1 1 1 1 1 1 1 1 1 1 1 1 1 1 1 1 1 1 1 1 1 1 1 1 1 1 1 1 1 1 1 1 1 1 1 1 1 1 1 1 1 1 1 1 1 1 1 1 1 1 1 1 1 1 1 1 1 1 1 1 1 1 1 1 1 1 1 1 1 1 1 1 1 1 1 1 1 1 1 1 1 1 1 1 1 1 1 1 1 1 1 1 1 1 1 1 1 1 1 1 1 1 1 1 1 1 1 1 1 1 1 1 1 1 1 1 1 1 1 1 1 1 1 1 1 1 1 1 1 1 1 1 1 1 1 1 1 1 1 1 1 1 1 1 1 1 1 1 1 1 1 1 1 1 1 1 1 1 1 1 1 1 1
        </DataArray>
      </Cells>
      <PointData Scalars="overlap">
        <DataArray type="Float32" Name="overlap" format="ascii">
 0.0001212725 0.0001259612 0.0000873782 0.0000895726 0.0000198582 0.0000559082 0.0000169440 0.0001258509 0.0000426807 0.0002382104 0.0004067480 0.0000820878 0.0000262949 0.0000595829 0.0000286531 0.0003301704 0.0001833305 0.0001332123 0.0002005922 0.0003079914 0.0001808418 0.0003020067 0.0000092666 0.0002436033 0.0002677351 0.0002143646 0.0000752884 0.0004010509 0.0000405723 0.0000853238 0.0000959801 0.0000715528 0.0000264234 0.0001071587 0.0002378869 0.0002889680 0.0005816472 0.0000948945 0.0002113336 0.0001000355 0.0000937176 0.0001401542 0.0001788457 0.0003454219 0.0001245253 0.0000034167 0.0000261266 0.0001714835 0.0000703552 0.0000398390 0.0000869740 0.0001592417 0.0004168185 0.0001952083 0.0000359470 0.0000267559 0.0000386202 0.0000303881 0.0001954982 0.0000130898 0.0001427872 0.0000950352 0.0000341247 0.0000358575 0.0001099880 0.0000632507 0.0000407632 0.0000428668 0.0000915263 0.0000379637 0.0000307202 0.0000422485 0.0000473138 0.0000121410 0.0000395173 0.0000068517 0.0000071332 0.0000813080 0.0000495683 0.0000435825 0.0000587646 0.0000478418 0.0000347263 0.0000709300 0.0000105820 0.0000318700 0.0000850762 0.0001003964 0.0001135415 0.0000976026 0.0000517928 0.0001156343 0.0000406469 0.0000174582 0.0000122268 0.0000359451 0.0000251745 0.0000121058 0.0000938374 0.0000470602 0.0000168123 0.0000023122 0.0000280806 0.0001402604 0.0000001375 0.0000125257 0.0001354957 0.0000521154 0.0000597612 0.0001881934 0.0000381623 0.0002363470 0.0001698533 0.0000688909 0.0001410014 0.0000680022 0.0001010376 0.0001073713 0.0000371966 0.0000177382 0.0000629910 0.0001985849 0.0000438833 0.0001425586 0.0005006762 0.0000707772 0.0006039603 0.0000915797 0.0000331964 0.0000028347 0.0001052460 0.0002046155 0.0002057332 0.0000464307 0.0000646188 0.0000305182 0.0001184672 0.0000794470 0.0000495275 0.0000824912 0.0000141403 0.0000154812 0.0000377659 0.0000033345 0.0000256565 0.0000234058 0.0000408707 0.0000336544 0.0000017388 0.0000284907 0.0000519833 0.0000290851 0.0001134956 0.0000637018 0.0000504538 0.0000217095 0.0000695616 0.0000473948 0.0000197536 0.0002041429 0.0000236011 0.0000448280 0.0000531730 0.0001097646 0.0000907112 0.0001235089 0.0000972696 0.0000518881 0.0000063358 0.0000691233 0.0000768212 0.0001230221 0.0001532603 0.0000110423 0.0000511936 0.0000140658 0.0000058100 0.0000569148 0.0000075801 0.0000108361 0.0001093085 0.0000889588 0.0000640853 0.0000619319 0.0001062215 0.0000398295 0.0000331654 0.0000576681 0.0000918145 0.0000874271 0.0000730836 0.0001201684 0.0000211419 0.0000500347 0.0001476122 0.0000394735 0.0000141136 0.0000140470 0.0000238678 0.0000018567 0.0000463796 0.0000027507 0.0000552342 0.0000195051 0.0000281067 0.0000703538 0.0000075865 0.0000358265 0.0001031629 0.0000434948 0.0000590726 0.0000485967 0.0000513094 0.0000808436 0.0000431453 0.0000210234 0.0000184431 0.0000296912 0.0000471322 0.0000320308 0.0000396424 0.0000169699 0.0000203365 0.0000357367 0.0000073341 0.0000374498 0.0000179834 0.0000262575 0.0000643463 0.0000115332 0.0000724461 0.0000131040 0.0000179012 0.0000671528 0.0000062515 0.0000191420 0.0000137745 0.0000277899 0.0000553701 0.0000349356
        </DataArray>
        <DataArray type="Float32" Name="contact normal" NumberOfComponents="3" format="ascii">
 0.5778852548 -0.2018733449 -0.7907564637 -0.4320325599 0.7893076403 -0.4362812351 0.5948808423 0.7430150725 0.3066682010 -0.4040629986 0.7754850607 -0.4851350469 -0.5048727659 0.8037550274 -0.3147718955 -0.6293093365 0.0714237922 -0.7738658805 -0.5310456284 0.0020210964 -0.8473408144 0.1877873515 -0.7583614720 -0.6241985168 -0.6702865548 0.7247452238 -0.1595628245 -0.6193980690 0.7639562484 -0.1808780878 -0.4078051288 -0.9035039521 -0.1318164837 -0.3934365863 -0.8242133478 -0.4072836971 -0.3868533655 0.4621417591 0.7979783632 0.4769858312 -0.5517798285 0.6841224581 0.4827063638 -0.5448681969 0.6856480251 0.5244592229 -0.4910866846 0.6955403595 -0.6932572901 0.0270042282 -0.7201840746 -0.1965139558 -0.1047481965 0.9748897786 -0.8721521120 0.4158362099 -0.2577420030 0.9034631243 -0.2799955200 0.3245872637 0.9309452003 -0.2740678384 0.2413044839 -0.9955508832 -0.0849853626 -0.0406930840 -0.9970152623 -0.0298236109 -0.0712117892 -0.9919988047 -0.1058756486 -0.0687656783 -0.9406389156 0.2675274405 0.2088719682 -0.8750694024 0.4838894759 -0.0102233097 0.9256030173 -0.0468334415 0.3755871178 0.8863902673 -0.1605150939 0.4342202191 0.0975532337 -0.9845892380 0.1451461298 0.4680142533 0.8814902629 -0.0627501010 -0.5847719990 -0.4598202703 0.6682866363 -0.4239568319 -0.6899986738 0.5866535901 0.2356724296 0.5535694788 -0.7987611270 -0.5475979661 -0.0698346990 -0.8338222727 -0.6984894812 0.7027776400 0.1349667866 -0.4113204535 0.6703360021 0.6176286334 -0.3468917672 0.6848589420 0.6408075619 -0.3824470471 0.6945208431 0.6094054928 0.8199426991 0.1284791879 0.5578414367 0.0638319499 -0.7176889074 0.6934321267 0.2432946126 -0.8566615493 -0.4549051786 0.2504915611 -0.8516131225 -0.4604444238 0.3508760911 -0.8029890194 -0.4817619779 0.3327857279 -0.8126925585 -0.4783141904 0.3202520614 -0.8191660325 -0.4758210046 0.5408931557 0.7964159680 -0.2704740286 0.1623223532 0.8060998911 -0.5690820847 0.6614481825 -0.4761297027 0.5794711452 -0.7394407513 0.3110808672 -0.5970394202 -0.7363971679 0.2893201281 -0.6115660836 -0.7297465483 0.3556939784 -0.5839107542 -0.7322369353 0.3211782038 -0.6005610976 0.4281443175 0.5023721020 0.7512088355 -0.2251789871 -0.4112439202 -0.8832739450 -0.7317136127 0.3241086741 -0.5996238457 0.3724724446 -0.9271660749 0.0403403961 -0.8600355431 0.4144764575 -0.2975703795 -0.6235758928 -0.1439972173 -0.7683865611 0.3445862434 -0.7703444505 0.5364976687 0.7427390152 -0.4496846920 0.4961072799 0.7480645657 -0.4449451941 0.4923648847 0.1877490624 0.6185083655 0.7630188015 -0.2015350483 0.8789734095 -0.4321913578 -0.4041053234 -0.7495851906 0.5242336594 0.6983724857 -0.3391013666 0.6303063814 -0.2707627744 0.6195608329 -0.7367712632 0.9020670652 0.3725013560 -0.2179856638 -0.6477095961 -0.7537896486 -0.1107855804 0.1121534266 0.9304400570 0.3488594404 -0.0902152836 0.7013591157 0.7070760874 -0.2455358705 0.6190578183 -0.7459755719 -0.1959330934 0.6166449293 -0.7624691824 -0.2455514222 0.6190583126 -0.7459700428 -0.2454567228 0.6190553017 -0.7460037069 -0.2455556582 0.6190584471 -0.7459685367 -0.2455556963 0.6190584483 -0.7459685232 -0.2456550117 0.6190615993 -0.7459332085 0.6486078226 -0.5690074357 0.5055080916 0.6509561684 -0.5622401538 0.5100412496 -0.3918719092 -0.8911252906 -0.2287621541 0.1808646454 -0.5886669035 -0.7878827685 0.5386925527 0.0216194675 0.8422249891 0.5389707758 0.0211897820 0.8420578935 0.5390881990 0.0210087516 0.8419872600 0.5389314888 0.0212504665 0.8420815092 0.5394829150 0.0203981905 0.8417494272 0.5393182652 0.0206530980 0.8418487146 0.5393979359 0.0205411038 0.8418004097 0.5394121351 0.0207753647 0.8417855622 0.5390617167 0.0213856914 0.8419947255 -0.5755230795 -0.2012186330 -0.7926438335 0.5403922624 0.0217661856 0.8411316400 -0.5156674889 -0.1001945623 -0.8509101543 -0.2584512474 -0.2997927340 -0.9183285193 0.9143673590 0.4048855798 -0.0000088453 0.9284295573 0.3452569308 -0.1371721870 -0.2169883330 0.4212686570 -0.8805956972 -0.5380353128 -0.0160497411 -0.8427694869 -0.5383703652 -0.0123679530 -0.8426175785 -0.5556446203 0.0175246129 -0.8312351917 -0.5386042565 -0.0113787015 -0.8424820355 0.5340954245 -0.7942917605 0.2895559991 0.8332043532 0.0707768137 0.5484169476 -0.5553829930 0.4938662769 -0.6690633989 0.0076312652 0.7049155939 0.7092501458 -0.4225431693 -0.9021452833 0.0871272514 0.3412658776 0.1167042494 -0.9326937970 -0.9805253346 -0.1787368055 -0.0813831839 -0.7561968455 0.3820223671 0.5312487571 -0.7584187387 0.3803507468 0.5292771734 -0.7533744852 0.3848033559 0.5332478432 0.5215652505 -0.7117762107 0.4704724386 0.2636976108 0.8863468224 -0.3805954289 -0.8406073298 -0.4039544415 -0.3608325462 -0.3213350734 0.6101579375 -0.7241899350 -0.2877894204 0.5650884205 -0.7732091092 0.6954958272 -0.1300826022 0.7066569684 0.6954913397 -0.1300513995 0.7066671281 0.7528730224 -0.1785596706 0.6334813779 -0.4588733453 -0.4991222285 -0.7350593541 -0.7089779116 0.4450560901 -0.5470606890 -0.7089820866 0.4450666485 -0.5470466884 -0.4589722901 -0.4989319883 -0.7351267292 -0.7089857842 0.4450759995 -0.5470342882 0.1640254962 -0.8891175527 0.4272769758 -0.4592617062 -0.4986451969 -0.7351405668 0.2507084545 -0.9148353088 0.3165779976 -0.4602180110 -0.4986524816 -0.7345373272 0.0247854392 -0.8584780563 0.5122510213 0.5638838883 0.0504520406 0.8243115625 -0.6588864293 0.5202675327 0.5433142440 0.6712298672 0.2049122258 0.7123632817 -0.8496415968 0.5148581327 0.1141501655 -0.5398578893 -0.6872117106 -0.4861003231 -0.6050861824 -0.1677356416 -0.7782900914 -0.4195806452 0.4292565230 0.7998068014 -0.8373312578 0.5252285866 -0.1516947479 -0.0676125224 -0.4842808475 -0.8722961697 -0.5030833274 0.0390337438 -0.8633559709 0.7081517743 0.1950362382 -0.6785881891 0.6969310162 -0.0310105658 -0.7164673778 -0.8152354048 0.5746407707 0.0719667935 -0.0661320881 0.0896550769 -0.9937748810 0.3306882384 0.9365650270 0.1161517934 -0.0559932749 -0.2799187130 0.9583894132 -0.0527618241 -0.3032648174 0.9514445020 -0.0315623255 -0.2861468592 0.9576658053 -0.0234263255 -0.2955773561 0.9550315355 -0.0267906602 -0.2912323470 0.9562771463 -0.2210187458 -0.4053420859 -0.8870448170 -0.3556332349 0.3709861580 -0.8578428019 0.9816654315 0.1631632120 -0.0985431216 0.6550921577 0.7199167346 0.2292905586 0.6132411775 0.7681549432 0.1840468460 0.1413918328 0.9264997998 0.3487211933 -0.2501664700 0.6718825109 -0.6971302811 -0.2754188908 0.6649402739 -0.6942613821 -0.7552298501 0.5553420715 -0.3481710171 -0.7353120247 0.5930768933 -0.3279878426 0.3831637282 -0.6311313063 0.6744322290 0.3860116909 -0.6215724953 0.6816469816 -0.6649938821 -0.6902422289 0.2852171141 0.1020111231 -0.6636459529 -0.7410585537 -0.6702300298 0.7385222640 -0.0733251170 -0.7024887084 0.4674708131 -0.5366382892 -0.7977352222 0.3770790776 -0.4705633694 -0.6145101975 0.7678540031 0.1810454283 -0.7489476419 -0.5451828701 0.3766338644 -0.7669505175 0.4778012124 -0.4283607186 -0.3838275770 0.3628522339 0.8491258137 -0.3837838896 0.3573485966 0.8514763100 0.7321150845 0.6764791192 -0.0798968354 -0.6084199772 0.2366961165 0.7574959273 -0.5308515459 -0.2373806694 -0.8135398294 -0.2362816218 -0.2682004911 -0.9339376273 0.1256683582 -0.6040986091 -0.7869385835 -0.9189003858 0.3333100434 0.2110130230 -0.1330169535 -0.0865422467 -0.9873281773 -0.4293878710 -0.8555777330 -0.2891587782 -0.3841850900 -0.8695945564 -0.3101727327 -0.5879272378 0.5790379965 -0.5648509199 -0.6646811372 0.4835771996 -0.5695191638 0.8524472040 -0.3319060467 0.4039457149 0.5257475688 -0.6262031179 -0.5757248900 0.9702284827 -0.1381439851 0.1989294615 0.1666478443 -0.2390346960 0.9566038418 0.7729268992 0.0402910600 0.6332145284 0.0129258963 -0.2386423522 -0.9710214977 -0.1832777963 0.8934196179 -0.4101348995 -0.9218316465 -0.0172317167 -0.3872072873 -0.8007390545 0.2151716698 -0.5590332004 0.3486494286 -0.3849835983 0.8545356663 -0.3993735613 0.4720079088 -0.7859448407 -0.3990173211 0.3288238066 -0.8559556540 0.7210655126 -0.5045890595 0.4748203950 0.7156007445 0.1020214998 0.6910189491 -0.8360194423 0.1474208565 -0.5285249125 0.1228145728 -0.6694137450 -0.7326676045 0.1267879316 -0.6670963765 -0.7341030206 0.1222772903 -0.6674442125 -0.7345518957 -0.3369240292 0.9410986131 -0.0285586937 -0.1946456704 -0.7655729215 0.6131974925 -0.4854227285 0.4653624782 -0.7401368377 -0.4904593800 0.4508856113 -0.7457558327 -0.1476726710 0.8301489840 -0.5376294697 -0.1517774529 0.8575966121 -0.4914180050 -0.1624812532 -0.9813197775 0.1030113427 -0.5560227555 -0.8206681521 0.1316908483 0.8516281427 0.1312976083 -0.5074351629 0.8830391358 0.1838682152 -0.4317804582 -0.6945830710 0.3900809699 -0.6044759667 -0.2845983119 0.5781642007 -0.7646763747 0.3565475926 -0.7259133176 0.5881527604 0.3567274952 -0.7257155179 0.5882877537 0.3567024592 -0.7256932013 0.5883304626 0.3566924495 -0.7256902936 0.5883401178 0.3567053298 -0.7256929762 0.5883289997 0.3567427204 -0.7257007406 0.5882967504 -0.3374497147 0.8272182818 -0.4492634020 -0.2928405744 0.9177821274 -0.2681797245 -0.2322830243 0.9406569498 -0.2474047281 0.8315530190 -0.4675245252 0.2999006417 0.8366184119 -0.3967205167 -0.3777333245 0.5781239355 -0.2686103003 -0.7704681835 0.4832269125 -0.4377016968 -0.7582275224 -0.5304935786 -0.8152059102 0.2324131817 -0.4770789993 0.8629061106 -0.1666993480 0.2280956018 -0.2115767946 0.9503723778 0.1808816197 -0.2025228046 0.9624273236 0.0189879819 0.7822864860 -0.6226293523 0.6856594247 0.3701104946 0.6268088824 -0.8741077302 0.4259018426 0.2335450630 -0.8290509691 0.5182569413 -0.2099624572 -0.8336948053 0.5296094660 -0.1564186216 0.8325008501 -0.1780963987 -0.5246179633 -0.3345890059 -0.7047914522 0.6255551183 -0.4109010260 0.5592196335 -0.7200234360 -0.4534310883 0.5458100786 -0.7046216050 -0.0491387585 0.1717720022 -0.9839104439 0.3631418192 -0.3360689267 0.8690142091
        </DataArray>
        <DataArray type="Float32" Name="contact force" NumberOfComponents="3" format="ascii">