<?xml version="1.0"?>
<VTKFile type="UnstructuredGrid" version="0.1" byte_order="LittleEndian">
  <UnstructuredGrid>
    <FieldData>
      <DataArray type="Float32" Name="TIME"  NumberOfTuples="1" format="ascii"> 1.3500000000 </DataArray>
      <DataArray type="Int32"   Name="STEP"  NumberOfTuples="1" format="ascii"> 135000 </DataArray>
    </FieldData>
    <Piece NumberOfPoints="296" NumberOfCells="296">
      <Points>
        <DataArray type="Float32" NumberOfComponents="3" format="ascii">
 2.8002269642 0.1810568622 -2.6803779144 2.9206024190 0.1195544345 -2.6535031574 2.8658141041 0.1057352962 -2.7847691187 2.9317012880 0.1178552706 -2.6707657614 2.8776519022 0.1006590661 -2.7890908695 2.9760231594 0.0973045497 -2.8202750208 2.9742315233 0.3341413605 -2.6524068053 2.9857419355 0.3293547201 -2.6602737043 2.9880821333 0.4193121691 -2.6688387865 3.0792227576 0.1729868521 -2.8672874865 3.0868966305 0.1798537274 -2.8678064803 3.0480800011 0.4386011199 -2.7628219430 3.1264858612 0.2369833019 -2.9507120682 3.0251353233 0.3793209663 -2.9386094610 3.0349591386 0.3773625515 -2.9484622695 3.0543726082 0.3938625482 -2.9576888946 3.1746444801 0.3851735973 -2.8217795764 3.1854686185 0.3778201377 -2.8308507993 3.2024396870 0.3704939214 -2.9269054813 3.4536487806 0.2579498820 -2.4848269184 3.4015105599 0.3172568395 -2.5730011514 3.4016852705 0.3130944408 -2.5817148810 3.4909322852 0.5146161880 -2.6449059827 3.4916664433 0.5065541681 -2.6656231747 3.4847191281 0.2869736670 -2.7028833195 3.4856138646 0.3007335985 -2.7105346722 3.4442617750 0.4685148470 -2.7703578322 3.4371981615 0.4496692044 -2.7560696588 2.6390729514 0.7621896369 -2.4961703786 2.6427750437 0.7544839884 -2.5018493293 2.6490310589 0.7637870100 -2.4942409581 2.6528771399 0.7559710934 -2.4999753668 2.5828665200 0.8428214425 -2.3335395145 2.6175767813 0.6718779800 -2.4170141019 2.7077345267 0.7678961896 -2.4709981872 2.6046626413 0.7356672306 -2.2871562869 2.6121665625 0.7299862400 -2.2901651560 3.0301889333 0.7254694877 -2.5939657706 3.1212909500 0.7299657913 -2.6642762252 3.0273473791 0.7185704528 -2.7129773896 3.0312687056 0.7225958868 -2.7163499557 3.0260798647 0.7244643004 -2.7194746251 2.8908645873 0.7379806803 -2.6607077326 3.1272137048 0.8370629064 -2.7153660568 2.9653729911 0.8212333267 -2.6312281490 2.9601376444 0.8224048544 -2.6364764860 2.9684096245 0.8265991958 -2.6365141472 2.9636881975 0.8280216414 -2.6420923356 2.9594918808 0.8300103398 -2.6483579594 2.8039121429 0.4073229914 -2.2948193475 2.8842602846 0.3990061758 -2.2086404450 2.7243135658 0.5907008376 -2.3020999897 2.7020803160 0.6128196930 -2.2469580585 2.9609836940 0.4732020709 -2.2609350870 2.9685748831 0.4731750303 -2.2707426835 2.9732185299 0.4890801829 -2.2695710526 2.9795806209 0.4880341515 -2.2781947814 2.8684691978 0.4010206035 -2.4229956258 2.8300639652 0.6846028443 -2.1598926351 2.8288791268 0.7242977072 -2.3727002596 3.0468873125 0.4714650520 -2.4013331678 3.0547221936 0.4827264112 -2.4018645735 3.0373851970 0.7673366869 -2.3022854756 3.0488340372 0.7856185898 -2.3133448161 2.9656990998 0.8612653869 -2.4655071397 3.3479656447 0.2964463201 -2.5718060660 3.3538324607 0.2944804261 -2.5840953565 3.3308795903 0.1471477248 -2.5828089741 3.0494811838 0.0452734880 -2.7752452449 3.1493148733 0.2181236279 -2.7360106430 3.2318705779 0.3530017103 -2.7120417372 3.2426192292 0.3605963587 -2.7100585528 3.0708472744 0.2805592760 -2.6047724449 3.1417054056 0.1813552495 -2.4955454451 3.0342372657 0.2185742846 -2.5250142625 2.6345340816 0.3953385892 -2.5129170401 2.6293404812 0.3898539100 -2.5027127833 2.6229982099 0.3882552211 -2.4049797415 2.6260551291 0.4134671801 -2.3834833447 2.6318482652 0.4224927082 -2.3777147776 2.6287895676 0.4307127500 -2.3690558521 2.6343959954 0.4376911804 -2.3651258594 2.6313641371 0.4446362004 -2.3575774271 2.6338484088 0.4571916506 -2.3473150334 2.6307791255 0.4642478867 -2.3396705263 2.5924308106 0.5549194862 -2.4119543381 2.5969631837 0.5600400003 -2.4134377070 2.6511484486 0.5948702575 -2.2834479419 2.6467028593 0.6038362177 -2.2915997012 2.7186474380 0.3277340843 -2.3376552464 2.7783243556 0.2477815214 -2.4365366527 2.7741656611 0.2390923140 -2.4337277720 2.7839030491 0.2485264251 -2.4400945200 2.7683620385 0.2330288964 -2.4299229971 2.7801164920 0.2384996540 -2.4374851385 2.7890400971 0.2510759153 -2.4434052841 2.7939631244 0.2555808658 -2.4466180780 2.7989085812 0.2624662193 -2.4498867952 2.8041718808 0.2725677151 -2.4534003274 2.6635464300 0.2506970460 -2.2930051711 2.8108471444 0.2709888715 -2.4576187468 2.8653932212 0.2638771323 -2.3924650665 2.8718743010 0.2718327754 -2.3971695208 2.6936710737 0.1764440732 -2.2916268596 2.6490007603 0.1022004238 -2.3210628985 2.6620101227 0.0792119555 -2.3314556562 2.7387039259 -0.0040441516 -2.3223758841 2.8667547104 0.0708216921 -2.3815484109 2.8791371775 0.0903848748 -2.3894602433 2.8848644392 0.1004865566 -2.3931145717 2.8916351291 0.1054420426 -2.3975160688 3.3262931218 0.0848045589 -2.7509848695 3.4035353794 0.1002940402 -2.5614037822 2.9037352184 0.1649524637 -2.2268214305 2.9234001874 0.1821623529 -2.3295239122 2.9343023838 0.1878494103 -2.3332499604 2.8862485035 0.2707297957 -2.3337585901 3.2639663902 0.6810569516 -2.4538218124 3.2105199954 0.6125604251 -2.6084810689 3.3072845227 0.6691291091 -2.5917415036 3.3045187164 0.6720931721 -2.5974567510 3.3078192969 0.6783245612 -2.5953593209 3.2320191996 0.7439269551 -2.6061778553 2.9826196390 0.4865909009 -2.6389813240 3.0564363434 0.4909996294 -2.6408927307 3.0610711709 0.5100889606 -2.6353157378 3.0697740861 0.5030771888 -2.6455274665 2.9524943736 0.5490370166 -2.7715063977 2.9559355536 0.5631976410 -2.7716387336 2.9578159846 0.5764926922 -2.7700179190 2.9645415254 0.5612575017 -2.7820383071 2.9664769720 0.5744306485 -2.7803445976 2.9670714778 0.5870447228 -2.7772275632 2.9745211204 0.5841846581 -2.7866660616 2.9743060667 0.5963875976 -2.7824435103 3.1369442232 0.6367827351 -2.7114787386 3.1454141096 0.6396767952 -2.7177923980 3.1538659769 0.6425683175 -2.7240974377 3.1994244024 0.4622213140 -2.8091590814 3.2069479378 0.4727299714 -2.8115707162 3.1626227937 0.6456453973 -2.7306777935 3.2142299872 0.4829611569 -2.8140602006 3.0622619986 0.7332969420 -2.8202697980 3.1720820610 0.6491402382 -2.7378817054 3.0697550535 0.7320749683 -2.8298625333 3.1828331912 0.6533988685 -2.7462226404 3.1342820479 0.7583191942 -2.8163792494 3.2277636795 0.5526124876 -2.9119235238 3.1380938019 0.6298187022 -2.9358337082 3.2360335048 0.5595769983 -2.9069038216 3.1513132067 0.6428852576 -2.9476095442 3.2961542889 0.6701176904 -2.8415335865 2.7996039654 0.7122028513 -2.6913442298 2.7937735357 0.7212580425 -2.6925406997 2.8019530752 0.7220753719 -2.6962872801 2.7963313507 0.7322140144 -2.6982029222 2.8094731756 0.7226954722 -2.6999951378 2.8047280353 0.7327306304 -2.7020488006 2.8864020290 0.6150414431 -2.7932325185 2.8872691328 0.6227067202 -2.7865743321 2.8126257526 0.7333804491 -2.7057071412 2.8914128742 0.6262489520 -2.7955672285 2.8922515686 0.6333195284 -2.7894182113 2.8930848289 0.6399120492 -2.7840407929 2.8975220749 0.6452864472 -2.7927864659 3.0210168480 0.1081962004 -2.4199747630 3.0168957534 0.0117976153 -2.3575419644 2.8446605310 0.1063196203 -2.2865904225 2.9183820889 0.0531324598 -2.2723041844 2.8472667405 0.0041632701 -2.2523891755 2.8384006184 0.0122232218 -2.2615203852 3.5169126085 0.4127650032 -2.6540483855 2.6755286776 0.1083090511 -2.5659678024 2.7382383238 0.0473290227 -2.5986792719 2.7513865904 0.0431030797 -2.5961014261 2.7663394722 0.1375645008 -2.6239483132 2.7698313483 0.1352878814 -2.6248256484 2.7701454542 0.1406700551 -2.6227768340 2.7738263806 0.1384219854 -2.6236831680 2.7909676815 0.1624828207 -2.5568745987 2.7998401792 0.1679060404 -2.5586291887 2.6038203552 0.8662586334 -2.2541930344 2.8946887130 0.4505989307 -2.6088402732 2.8914351224 0.4406757278 -2.6067693653 3.0098822929 0.3571531599 -2.5948478120 3.1049673265 0.5726733685 -2.9767638586 3.0972436199 0.5769259760 -2.9721893336 3.1904018493 0.0601524826 -2.7970799283 3.1673514278 0.0702012201 -2.7533202884 3.1774232292 0.0748417706 -2.7529104336 3.1708812441 0.0763985536 -2.7486308684 3.2625291758 0.1091537790 -2.8102275582 3.2712111300 0.1224726955 -2.8092714800 3.1336816116 0.1806952653 -2.8384435774 3.1385664344 0.1845464910 -2.8388265740 3.0714949125 0.1130306587 -2.3109438921 3.1307301531 0.2137921061 -2.3193552795 3.3808636572 0.5917921665 -2.8064369927 3.3467192395 0.5862835184 -2.7159064898 3.3482983847 0.4637629940 -2.7851361013 3.3439621964 0.4608343950 -2.7803593199 3.3433504589 0.4560944506 -2.7848621189 3.3394462103 0.4536054374 -2.7801833508 3.2923463379 0.3708389875 -2.8458080887 2.7348227365 0.8548571207 -2.5782414293 2.7401257273 0.8464314107 -2.5795884602 3.2724945415 0.6335027063 -2.6912646942 3.1764905266 0.5811247334 -2.6282654630 3.1689795250 0.5850970826 -2.6221981055 2.7050306215 0.8411633229 -2.2654502946 2.7120567987 0.8402531899 -2.2617904782 2.6501401656 0.2346477591 -2.5336699489 2.7315222071 0.2358673019 -2.6312631237 2.6861283593 0.3763822681 -2.5702889367 2.7837910093 0.1003003590 -2.2416084741 2.8192524078 0.1398520261 -2.2623291285 3.0553227964 -0.0011084766 -2.5481109540 3.1400254196 0.0055062531 -2.5547614820 2.9165153414 0.8390680460 -2.1864835440 2.7790050453 0.8768687108 -2.3084340374 3.1615830542 0.1947397599 -2.4051473274 3.1809021247 0.1273717309 -2.4385006569 3.1760716741 0.1235090857 -2.4348332987 3.1781746379 0.1219607953 -2.4397777860 3.0700734188 0.1305893223 -2.4516024557 3.0421339974 0.8865459630 -2.5279918960 3.2997363431 0.1579591043 -2.9203035163 3.3046639786 0.3079605003 -2.9358743069 3.3024326158 0.3124989330 -2.9337080127 2.7490256349 0.8298292296 -2.6350149110 2.8683426681 0.7874877228 -2.7160285197 3.1410535161 0.7472117315 -2.3321740366 3.1344093786 0.7480453193 -2.2552557820 3.1906171227 0.0989846814 -2.9935749363 3.1828578335 0.0922463568 -2.9955840069 3.1700046807 0.0743957150 -3.0093211523 2.9571218502 0.7914226211 -2.1822745369 2.8065518308 0.7629685080 -2.5247504929 2.8673370440 0.8866619795 -2.4923809122 2.8761932708 0.8878803872 -2.5043775489 2.8481137540 0.8642926493 -2.5208103409 2.5770472607 0.1637571825 -2.4534820718 2.6444783853 0.0908436370 -2.5284324357 3.2116884391 0.8857945522 -2.7229159901 3.3026134598 0.8742767229 -2.6715145570 3.2039037278 0.8886466784 -2.7141020865 3.2992345151 0.8528775755 -2.6700970472 3.3397171366 0.6462944727 -2.6424001465 3.3425911588 0.6509660191 -2.6452974014 3.3606513252 0.3586285215 -2.7676776122 2.8261022896 0.0079916437 -2.1660853412 3.1917004864 0.0379886748 -2.6829696936 3.1932959970 0.0326192635 -2.6896821193 3.2877265519 0.0230914674 -2.8460052136 3.2860321863 0.0158468910 -2.8397099003 3.2993398923 0.0093202046 -2.7986326177 3.2975855313 0.0122403672 -2.7890549310 3.2253668762 0.8442463016 -2.8355518357 3.2254740736 0.8528382271 -2.8349538945 3.1474729006 0.8795801158 -2.8105037493 3.1493466660 0.8852297663 -2.8049718348 3.0195420070 0.4443042656 -2.1882289939 2.8588562008 0.5609509263 -2.0741619592 3.1380812208 0.1073258042 -3.0376870291 3.1458561192 0.1178648964 -3.0296889879 3.1476164046 0.1228762956 -3.0243689219 3.1499511399 0.1268498570 -3.0208700236 3.1706303730 0.1532820869 -3.0015462588 3.1529668714 0.1301632792 -3.0187783808 3.1649621939 0.1479925094 -3.0042374651 3.1619369622 0.1435893852 -3.0077803688 3.1568799144 0.1330378522 -3.0179601554 3.1609872202 0.1395734962 -3.0124071438 3.1765902534 0.0225233844 -2.6153784333 3.1658466177 0.0207468427 -2.6087417902 3.1973761041 0.0283268912 -2.6254723791 3.1926793327 0.2869030518 -2.9887208385 3.5837312825 0.3115043349 -2.5847169444 2.6388099362 0.5865057545 -2.4802293083 2.6301009718 0.5740724715 -2.4823833654 2.7818561045 0.6165830815 -2.5111587167 2.7673648470 0.4884680257 -2.6015158245 2.8161551007 0.6924786845 -2.5621446467 2.8187606777 0.6890114734 -2.5633870755 2.8618117338 0.4599182588 -2.7184587464 2.8613524808 0.4009199425 -2.1649074862 2.7764664135 0.2762589193 -2.2202336887 2.8192510946 0.2545502485 -2.1656321730 2.7822318860 0.2672167137 -2.2229570180 3.0609373507 0.0145324353 -2.3701178290 3.0465749564 -0.0082987552 -2.3103199122 2.6809552654 0.3867832484 -2.3195849481 2.6745723100 0.3840700504 -2.3171521206 3.1788516251 -0.0427997246 -2.4733324528 2.9292808815 0.8796743322 -2.5515182470 2.9224640582 0.8736537809 -2.5508169853
        </DataArray>
      </Points>
      <Cells>
        <DataArray type="Int32" Name="connectivity" format="ascii">
 0 1 2 3 4 5 6 7 8 9 10 11 12 13 14 15 16 17 18 19 20 21 22 23 24 25 26 27 28 29 30 31 32 33 34 35 36 37 38 39 40 41 42 43 44 45 46 47 48 49 50 51 52 53 54 55 56 57 58 59 60 61 62 63 64 65 66 67 68 69 70 71 72 73 74 75 76 77 78 79 80 81 82 83 84 85 86 87 88 89 90 91 92 93 94 95 96 97 98 99 100 101 102 103 104 105 106 107 108 109 110 111 112 113 114 115 116 117 118 119 120 121 122 123 124 125 126 127 128 129 130 131 132 133 134 135 136 137 138 139 140 141 142 143 144 145 146 147 148 149 150 151 152 153 154 155 156 157 158 159 160 161 162 163 164 165 166 167 168 169 170 171 172 173 174 175 176 177 178 179 180 181 182 183 184 185 186 187 188 189 190 191 192 193 194 195 196 197 198 199 200 201 202 203 204 205 206 207 208 209 210 211 212 213 214 215 216 217 218 219 220 221 222 223 224 225 226 227 228 229 230 231 232 233 234 235 236 237 238 239 240 241 242 243 244 245 246 247 248 249 250 251 252 253 254 255 256 257 258 259 260 261 262 263 264 265 266 267 268 269 270 271 272 273 274 275 276 277 278 279 280 281 282 283 284 285 286 287 288 289 290 291 292 293 294 295
        </DataArray>
        <DataArray type="Int32" Name="offsets" format="ascii">
 1 2 3 4 5 6 7 8 9 10 11 12 13 14 15 16 17 18 19 20 21 22 23 24 25 26 27 28 29 30 31 32 33 34 35 36 37 38 39 40 41 42 43 44 45 46 47 48 49 50 51 52 53 54 55 56 57 58 59 60 61 62 63 64 65 66 67 68 69 70 71 72 73 74 75 76 77 78 79 80 81 82 83 84 85 86 87 88 89 90 91 92 93 94 95 96 97 98 99 100 101 102 103 104 105 106 107 108 109 110 111 112 113 114 115 116 117 118 119 120 121 122 123 124 125 126 127 128 129 130 131 132 133 134 135 136 137 138 139 140 141 142 143 144 145 146 147 148 149 150 151 152 153 154 155 156 157 158 159 160 161 162 163 164 165 166 167 168 169 170 171 172 173 174 175 176 177 178 179 180 181 182 183 184 185 186 187 188 189 190 191 192 193 194 195 196 197 198 199 200 201 202 203 204 205 206 207 208 209 210 211 212 213 214 215 216 217 218 219 220 221 222 223 224 225 226 227 228 229 230 231 232 233 234 235 236 237 238 239 240 241 242 243 244 245 246 247 248 249 250 251 252 253 254 255 256 257 258 259 260 261 262 263 264 265 266 267 268 269 270 271 272 273 274 275 276 277 278 279 280 281 282 283 284 285 286 287 288 289 290 291 292 293 294 295 296
        </DataArray>
        <DataArray type="UInt8" Name="types" format="ascii">
 1 1 1 1 1 1 1 1 1 1 1 1 1 1 1 1 1 1 1 1 1 1 1 1 1 1 1 1 1 1 1 1 1 1 1 1 1 1 1 1 1 1 1 1 1 1 1 1 1 1 1 1 1 1 1 1 1 1 1 1 1 1 1 1 1 1 1 1 1 1 1 1 1 1 1 1 1 1 1 1 1 1 1 1 1 1 1 1 1 1 1 1 1 1 1 1 1 1 1 1 1 1 1 1 1 1 1 1 1 1 1 1 1 1 1 1 1 1 1 1 1 1 1 1 1 1 1 1 1 1 1 1 1 1 1 1 1 1 1 1 1 1 1 1 1 1 1 1 1 1 1 1 1 1 1 1 1 1 1 1 1 1 1 1 1 1 1 1 1 1 1 1 1 1 1 1 1 1 1 1 1 1 1 1 1 1 1 1 1 1 1 1 1 1 1 1 1 1 1 1 1 1 1 1 1 1 1 1 1 1 1 1 1 1 1 1 1 1 1 1 1 1 1 1 1 1 1 1 1 1 1 1 1 1 1 1 1 1 1 1 1 1 1 1 1 1 1 1 1 1 1 1 1 1 1 1 1 1 1 1 1 1 1 1 1 1 1 1 1 1 1 1 1 1 1 1 1 1 1 1 1 1 1 1 1 1 1 1 1 1 1 1 1 1 1 1
        </DataArray>
      </Cells>
      <PointData Scalars="overlap">
        <DataArray type="Float32" Name="overlap" format="ascii">
 0.0001281082 0.0001546006 0.0005701618 0.0001042005 0.0003765685 0.0000664403 0.0000920114 0.0000557706 0.0001393815 0.0000568173 0.0002485977 0.0003136406 0.0000092524 0.0000529572 0.0000236634 0.0003228754 0.0000035477 0.0002250165 0.0000913745 0.0000805028 0.0003504193 0.0002078631 0.0002934210 0.0002269287 0.0002965036 0.0002383742 0.0001395002 0.0004851317 0.0001260406 0.0000183556 0.0000123962 0.0001160319 0.0002154815 0.0002253500 0.0000261674 0.0000943944 0.0000897933 0.0000805002 0.0002577910 0.0002224480 0.0005478553 0.0000411240 0.0002504279 0.0000475341 0.0001143856 0.0001611055 0.0001963624 0.0003630403 0.0001414252 0.0000023620 0.0000659823 0.0002251606 0.0000118164 0.0000248792 0.0000063709 0.0000032302 0.0000877214 0.0003250949 0.0001201933 0.0000561204 0.0001226897 0.0000272320 0.0000258309 0.0000432492 0.0002100293 0.0000458089 0.0001176876 0.0000006325 0.0000336017 0.0001829737 0.0000445868 0.0000742906 0.0001689879 0.0000730289 0.0001294981 0.0000475162 0.0000250662 0.0000001544 0.0000383439 0.0000467739 0.0000527562 0.0000147523 0.0000430369 0.0000085657 0.0000097660 0.0001085840 0.0000815721 0.0000314554 0.0000533013 0.0000259165 0.0000429273 0.0000295692 0.0000668988 0.0000047768 0.0000277365 0.0000817654 0.0000976685 0.0001112771 0.0000956893 0.0000493534 0.0001149207 0.0000009623 0.0000434958 0.0000531431 0.0000114105 0.0000427482 0.0000175394 0.0000002484 0.0000874197 0.0000428205 0.0000157181 0.0000268441 0.0000810949 0.0000049278 0.0000000688 0.0000090180 0.0000172264 0.0001740196 0.0000561298 0.0000572357 0.0001949878 0.0000272432 0.0002853511 0.0002003054 0.0003128329 0.0002469159 0.0001616395 0.0001935071 0.0005241583 0.0003261595 0.0001121454 0.0005651292 0.0004397723 0.0001125133 0.0002245649 0.0000218931 0.0000405525 0.0000496466 0.0002002225 0.0003151946 0.0000549292 0.0002390310 0.0001143582 0.0000589008 0.0002169505 0.0000526655 0.0000290960 0.0000133394 0.0000517475 0.0001602370 0.0002942723 0.0001511578 0.0001480065 0.0002109278 0.0001164922 0.0000877179 0.0003145032 0.0003696061 0.0000379410 0.0002950139 0.0001724246 0.0001864167 0.0005481022 0.0001689363 0.0001746860 0.0000267818 0.0000867613 0.0000918946 0.0000286180 0.0000731161 0.0000045405 0.0000378804 0.0000544490 0.0000054693 0.0000549196 0.0000217078 0.0000323330 0.0000075485 0.0000130838 0.0000275528 0.0000142491 0.0000608720 0.0000239871 0.0000107373 0.0000224252 0.0001163324 0.0000764761 0.0000611429 0.0000225697 0.0000306602 0.0000866166 0.0000325077 0.0000000761 0.0002249479 0.0000509340 0.0001992335 0.0000274311 0.0000508447 0.0000292769 0.0000102915 0.0001556740 0.0001228384 0.0001527543 0.0000955534 0.0000120087 0.0000950957 0.0000577872 0.0000234790 0.0000396879 0.0000508725 0.0000573081 0.0002190921 0.0000818760 0.0002100178 0.0000103678 0.0000323086 0.0000265944 0.0000080169 0.0000070683 0.0000169110 0.0000034481 0.0000290421 0.0000307679 0.0000112470 0.0000383115 0.0000033527 0.0000208335 0.0000153592 0.0000204153 0.0001393251 0.0000972405 0.0000472532 0.0000646215 0.0000034587 0.0000204476 0.0000059607 0.0000280691 0.0000844460 0.0000590021 0.0000482674 0.0001265035 0.0000478044 0.0000653764 0.0001357131 0.0000106065 0.0000176817 0.0000577852 0.0000171861 0.0000212050 0.0000478929 0.0000014245 0.0000880192 0.0000355241 0.0000294723 0.0000043514 0.0000118573 0.0000465943 0.0000466314 0.0000224346 0.0000103919 0.0000005403 0.0000241246 0.0000243051 0.0000175183 0.0000793050 0.0000489135 0.0000363993 0.0000236663 0.0000462077 0.0000036225 0.0000133702 0.0000735600 0.0000536692 0.0000274335 0.0000153632 0.0000213057 0.0000031916 0.0000043782 0.0000592847 0.0000134529 0.0000482818 0.0000174240 0.0000140870 0.0000111302 0.0000163683 0.0000114599 0.0000212501 0.0000111571 0.0000102547 0.0000350255 0.0000878683 0.0000169194 0.0000219819 0.0000879694 0.0000067934 0.0000529488
        </DataArray>
        <DataArray type="Float32" Name="contact normal" NumberOfComponents="3" format="ascii">