<?xml version="1.0"?>
<VTKFile type="UnstructuredGrid" version="0.1" byte_order="LittleEndian">
  <UnstructuredGrid>
    <FieldData>
      <DataArray type="Float32" Name="TIME"  NumberOfTuples="1" format="ascii"> 1.9500000000 </DataArray>
      <DataArray type="Int32"   Name="STEP"  NumberOfTuples="1" format="ascii"> 195000 </DataArray>
    </FieldData>
    <Piece NumberOfPoints="249" NumberOfCells="249">
      <Points>
        <DataArray type="Float32" NumberOfComponents="3" format="ascii">
 5.9339065896 0.1621072762 -5.9211960224 6.0563346562 0.1031615598 -5.8979472053 5.9799055009 0.0992222438 -6.0324785160 6.0670244900 0.1019669468 -5.9155078129 6.1081924184 0.0842015678 -6.0662682658 6.1048730191 0.3189733279 -5.8955382842 6.1162992878 0.3145548195 -5.9037358428 6.1163034582 0.4046389113 -5.9112579871 6.2084013100 0.1628756956 -6.1148185937 6.2158953253 0.1699301053 -6.1154377771 6.1735328215 0.4264381046 -6.0064140021 6.1797090741 0.4281865447 -6.0205167628 6.1477393016 0.3686736115 -6.1823107855 6.1573660505 0.3670644250 -6.1924180833 6.1761560370 0.3841280926 -6.2019044228 6.2998562312 0.3767426765 -6.0690344318 6.3106283425 0.3697552222 -6.0784510108 6.3254352371 0.3639503472 -6.1749621016 6.5899016585 0.2523084269 -5.7403793869 6.5342641418 0.3113770094 -5.8265269206 6.5343192226 0.3073239004 -5.8352938266 6.6172317935 0.5116570474 -5.8981193431 6.6176413990 0.5038579097 -5.9189464406 6.6149776470 0.2846263294 -5.9587412885 6.6153621556 0.2984912031 -5.9662405121 6.5685868206 0.4659294402 -6.0229763848 6.5623177742 0.4467553739 -6.0087586184 5.7676430818 0.7294032516 -5.7318377948 5.7777551518 0.7311661301 -5.7302440511 5.7813176132 0.7223118101 -5.7365262453 5.7114807598 0.8136429069 -5.5729107324 5.7095521698 0.8144653298 -5.5612367314 5.7463799989 0.6452865518 -5.6474661486 5.7349665748 0.7073312924 -5.5166134223 5.7425325640 0.7018678187 -5.5198608779 6.1530073586 0.7108347555 -5.8336961305 6.2422200267 0.7183386911 -5.9061500710 6.1473901155 0.7052961390 -5.9526820067 6.1511346110 0.7094508198 -5.9561020828 6.1458254937 0.7112345820 -5.9590733512 6.0117966708 0.7208029819 -5.8968977558 6.2443540040 0.8261386404 -5.9560122601 6.0850490585 0.8054540394 -5.8681862930 6.0796608316 0.8065610605 -5.8732919498 6.0878282628 0.8109537495 -5.8734773909 6.0829396016 0.8123278509 -5.8789220267 6.0785454038 0.8142887238 -5.8850596029 6.0242599780 0.3765298861 -5.4489634071 5.8575791662 0.5654074791 -5.5362367512 6.0979011059 0.4531507388 -5.5021828975 6.1052527261 0.4534186711 -5.5121680035 6.0915853136 0.3688574571 -5.5567632957 6.1095496218 0.4694148686 -5.5109109859 6.1157251466 0.4686212145 -5.5196958905 6.0032268216 0.3806382441 -5.6628529223 5.9644959463 0.6601476218 -5.3954926249 5.9572118478 0.7022873605 -5.6076822515 6.1804048117 0.4550985650 -5.6446016764 6.1879580513 0.4665474552 -5.6451846382 6.0242796941 0.7902032628 -5.4966818905 6.1662753865 0.7494865587 -5.5417834388 6.1770271561 0.7681676879 -5.5528786462 6.0884582560 0.8435585574 -5.7020711015 6.3059854426 0.7080055528 -5.6795181987 6.4868312416 0.2876274305 -5.8366220823 6.4673777940 0.1397846739 -5.8363561723 6.1852684919 0.0354048900 -6.0234252351 6.2806264631 0.2081908015 -5.9847126343 6.3605349006 0.3447201939 -5.9610527899 6.3711248220 0.3525564844 -5.9592480974 6.2038913905 0.2672038314 -5.8508778124 6.2797034635 0.1684441618 -5.7445998094 6.1706964414 0.2034161166 -5.7710214935 5.7673153478 0.3704339597 -5.7472100212 5.7625005339 0.3647016710 -5.7369495188 5.7585764402 0.3618068200 -5.6391287557 5.7615583121 0.3868322581 -5.6174050676 5.7672751267 0.3959258514 -5.6116672891 5.7642343137 0.4039688824 -5.6028374834 5.7697680471 0.4110332831 -5.5989583837 5.7667573589 0.4178151438 -5.5912547201 5.7636360111 0.4245523644 -5.5835963417 5.7691929281 0.4303059150 -5.5809021221 5.7661445468 0.4371969328 -5.5731001554 5.7239149065 0.5277635715 -5.6433292301 5.7282868147 0.5330085072 -5.6448588249 5.7847823542 0.5676066920 -5.5157886412 5.7799273247 0.5765588199 -5.5237170340 5.8572179774 0.3027883019 -5.5748479838 5.9163597038 0.2254465549 -5.6761013972 5.9124776020 0.2166279850 -5.6732997912 5.9218313037 0.2263664366 -5.6797825032 5.9069133576 0.2103832155 -5.6694312710 5.9183480238 0.2162220277 -5.6772055280 5.9268246884 0.2290767901 -5.6831840360 5.9315601591 0.2337356324 -5.6864586875 5.9362602206 0.2407752176 -5.6897607805 5.9411957149 0.2510402711 -5.6932760290 5.8050571670 0.2239373318 -5.5298355058 5.9478023684 0.2496712258 -5.6976720213 6.0040641522 0.2431116517 -5.6339334899 6.0102384297 0.2512746033 -5.6386951220 6.0181196910 0.2485171756 -5.6428935153 5.8369560350 0.1504169679 -5.5300872997 5.7933612387 0.0754726909 -5.5593520740 5.8066568432 0.0529255415 -5.5703339829 5.8854956762 -0.0285695512 -5.5641091171 6.0102637123 0.0500305048 -5.6254133705 6.0219844031 0.0699758995 -5.6333788010 6.0273806106 0.0802539682 -5.6370451661 6.0339238137 0.0854213182 -5.6415459785 6.5416297897 0.0944167350 -5.8176652259 6.0763276111 0.1687088310 -5.5777230209 6.3910503591 0.6704025638 -5.6996772240 6.3907267015 0.6811848318 -5.6969275908 6.3354583215 0.6024604524 -5.8538371390 6.4312860861 0.6610702418 -5.8387599996 6.4283139962 0.6640345258 -5.8443705591 6.4315192349 0.6703170068 -5.8422776663 6.3539768792 0.7342632041 -5.8504766430 6.1096056061 0.4714874911 -5.8806160270 6.1833195873 0.4777050025 -5.8841535819 6.1876009400 0.4967428790 -5.8784382155 6.1962143520 0.4900638744 -5.8889377043 6.0706764812 0.5193144413 -6.0093803757 6.0749197734 0.5348547728 -6.0116843436 6.0838940271 0.5332362267 -6.0223144138 6.2669957133 0.6292700922 -5.9612529038 6.2752279232 0.6324287558 -5.9677183443 6.3229328666 0.4541715703 -6.0560256021 6.3301504116 0.4648821067 -6.0584832230 6.2837541796 0.6357831521 -5.9744638692 6.3371313170 0.4753106336 -6.0610165088 6.1793481699 0.7221528434 -6.0606247619 6.1860815924 0.7346458417 -6.0606253016 6.2929582257 0.6395786027 -5.9818440974 6.1866142759 0.7212991002 -6.0704144740 6.3034090839 0.6441805373 -5.9903819578 6.2508536725 0.7487646557 -6.0580777541 6.2547877916 0.6218353898 -6.1791998913 6.3549763075 0.5535251196 -6.1534188731 6.2674202635 0.6353387940 -6.1911186204 6.4140651849 0.6646423309 -6.0880719450 6.3786140284 0.7139781761 -6.0947532938 6.1626237324 0.0915331261 -5.6670432642 6.1623125142 -0.0056669862 -5.6057010980 5.9896218857 0.0838965044 -5.5295296417 6.0648966336 0.0323248177 -5.5176579742 5.9954623731 -0.0185583528 -5.4966453261 5.8836779410 0.0571992705 -5.8021399334 5.8906824217 0.0218840624 -5.8378914714 5.9025705131 0.1171556633 -5.8644906317 5.9060967072 0.1149821189 -5.8654837455 5.9281731177 0.1415967893 -5.7975986935 5.7313700479 0.8372921866 -5.4819774251 6.0237432782 0.4328877096 -5.8485158511 6.2220527684 0.5643073523 -6.2200208847 6.2143374659 0.5683322790 -6.2152314530 6.3239036970 0.0519405821 -6.0486681547 6.3016859415 0.0609244438 -6.0042506007 6.3116523386 0.0657992163 -6.0040244278 6.3051806304 0.0671492614 -5.9995712996 6.3945144904 0.1028027165 -6.0629313827 6.4029007573 0.1163129237 -6.0620192964 6.2633686902 0.1715769254 -6.0871910139 6.2681499062 0.1755486705 -6.0876441467 6.2149910044 0.0961830834 -5.5600099347 6.5014311469 0.5880558458 -6.0561535399 6.4696382661 0.5806893704 -5.9648978673 6.4682925080 0.4559529599 -6.0307828001 6.4676855574 0.4512532119 -6.0353211497 6.4639560013 0.4486192527 -6.0305816383 6.4199108905 0.3728502721 -6.1047435982 6.4172452391 0.3655034904 -6.0960603431 5.8322650418 0.7670223619 -5.8541263188 6.3949401476 0.6257707816 -5.9378990615 6.3017374489 0.5704085825 -5.8732637582 6.2942852241 0.5741307219 -5.8669693674 5.8332254312 0.8148957099 -5.4961059993 5.8403578591 0.8141115960 -5.4926270080 5.7862166354 0.2104191905 -5.7703514503 5.8653206012 0.2147924532 -5.8696983333 5.9300303743 0.0759126545 -5.4831701489 5.9640265547 0.1165388645 -5.5042615652 5.8670139306 0.1871471879 -5.5239250634 6.0465614439 0.8169282838 -5.4222642544 5.9052797950 0.8528586277 -5.5404076167 6.3214812394 0.1147352347 -5.6892072279 6.2103390277 0.1154709059 -5.6995979180 5.9837066294 0.7735482807 -5.9479006908 5.9330908320 0.8927788340 -5.9414386575 6.2696333143 0.7321767701 -5.5743876633 6.2648588259 0.7319636608 -5.4973073193 6.0884157150 0.7702718972 -5.4195839675 5.9302649652 0.7421608261 -5.7586846749 5.9888661639 0.8668937635 -5.7262781163 5.9973982054 0.8684616479 -5.7384669627 5.9694981131 0.8443963934 -5.7545082567 5.7167790788 0.1368436399 -5.6892646209 5.7840791074 0.0664295410 -5.7666816196 6.3274805854 0.8769316407 -5.9649841305 6.4198650883 0.8669951200 -5.9159035550 6.3198437423 0.8794915377 -5.9559555872 6.4170296086 0.8455060194 -5.9146669863 6.4640743897 0.6333537210 -5.8855154576 6.4630306851 0.6396464365 -5.8904999438 6.4657225441 0.6444197267 -5.8934063302 6.4876964027 0.3540280704 -6.0197264116 6.3284778971 0.0284826249 -5.9349001137 6.3300376579 0.0232315266 -5.9417137679 6.4208421858 0.0177683145 -6.1003514865 6.4194727741 0.0104125631 -6.0941062426 6.4339241235 0.0037305251 -6.0534445766 6.4323359531 0.0064915082 -6.0437900691 5.9563314332 0.2670020033 -5.8833154603 6.3394096648 0.8370368428 -6.0783696356 6.3393360750 0.8456226642 -6.0776706691 6.2613205162 0.8702096283 -6.0510880718 6.1587911407 0.4247639171 -5.4312479008 5.9982447796 0.5362678586 -5.3119341350 6.2646034795 0.1006078574 -6.2873706333 6.2723118351 0.1112503416 -6.2794452753 6.2740809178 0.1162432270 -6.2741107624 6.2764033965 0.1202347003 -6.2706241480 6.2793868473 0.1236002579 -6.2685697826 6.2832452385 0.1265651381 -6.2678167048 6.3153806586 0.0118811734 -5.8671592133 6.3048463404 0.0097711241 -5.8602889109 6.3357721406 0.0182974620 -5.8776777628 6.2263056248 0.0232781531 -5.8331621101 6.3252523163 0.2791334495 -6.2490132835 6.7162022595 0.3101434312 -5.8427390711 5.8450951323 0.4321299413 -5.8478208079 5.7678487040 0.5612396148 -5.7123141354 5.7593852411 0.5486286030 -5.7144122541 5.9093574347 0.5950847645 -5.7462700549 5.8957216159 0.4677279543 -5.8378306972 5.9879547864 0.4427072096 -5.9573448347 6.0022268163 0.3774741213 -5.4047326481 5.9190765958 0.2514075076 -5.4595133186 5.9635339036 0.2301788058 -5.4060808516 5.9664835911 0.2257512940 -5.4107768740 6.1219655183 0.7375761436 -5.4612315492 6.2059348556 -0.0017205433 -5.6193288227 5.8186080130 0.3607199538 -5.5551848692 5.8123517958 0.3578273710 -5.5526325261 6.3226333186 -0.0550133852 -5.7260049934 6.0495115143 0.8620814771 -5.7869642712 6.0428579354 0.8558915626 -5.7861737656
        </DataArray>
      </Points>
      <Cells>
        <DataArray type="Int32" Name="connectivity" format="ascii">
 0 1 2 3 4 5 6 7 8 9 10 11 12 13 14 15 16 17 18 19 20 21 22 23 24 25 26 27 28 29 30 31 32 33 34 35 36 37 38 39 40 41 42 43 44 45 46 47 48 49 50 51 52 53 54 55 56 57 58 59 60 61 62 63 64 65 66 67 68 69 70 71 72 73 74 75 76 77 78 79 80 81 82 83 84 85 86 87 88 89 90 91 92 93 94 95 96 97 98 99 100 101 102 103 104 105 106 107 108 109 110 111 112 113 114 115 116 117 118 119 120 121 122 123 124 125 126 127 128 129 130 131 132 133 134 135 136 137 138 139 140 141 142 143 144 145 146 147 148 149 150 151 152 153 154 155 156 157 158 159 160 161 162 163 164 165 166 167 168 169 170 171 172 173 174 175 176 177 178 179 180 181 182 183 184 185 186 187 188 189 190 191 192 193 194 195 196 197 198 199 200 201 202 203 204 205 206 207 208 209 210 211 212 213 214 215 216 217 218 219 220 221 222 223 224 225 226 227 228 229 230 231 232 233 234 235 236 237 238 239 240 241 242 243 244 245 246 247 248
        </DataArray>
        <DataArray type="Int32" Name="offsets" format="ascii">
 1 2 3 4 5 6 7 8 9 10 11 12 13 14 15 16 17 18 19 20 21 22 23 24 25 26 27 28 29 30 31 32 33 34 35 36 37 38 39 40 41 42 43 44 45 46 47 48 49 50 51 52 53 54 55 56 57 58 59 60 61 62 63 64 65 66 67 68 69 70 71 72 73 74 75 76 77 78 79 80 81 82 83 84 85 86 87 88 89 90 91 92 93 94 95 96 97 98 99 100 101 102 103 104 105 106 107 108 109 110 111 112 113 114 115 116 117 118 119 120 121 122 123 124 125 126 127 128 129 130 131 132 133 134 135 136 137 138 139 140 141 142 143 144 145 146 147 148 149 150 151 152 153 154 155 156 157 158 159 160 161 162 163 164 165 166 167 168 169 170 171 172 173 174 175 176 177 178 179 180 181 182 183 184 185 186 187 188 189 190 191 192 193 194 195 196 197 198 199 200 201 202 203 204 205 206 207 208 209 210 211 212 213 214 215 216 217 218 219 220 221 222 223 224 225 226 227 228 229 230 231 232 233 234 235 236 237 238 239 240 241 242 243 244 245 246 247 248 249
        </DataArray>
        <DataArray type="UInt8" Name="types" format="ascii">
 1 1 1 1 1 1 1 1 1 1 1 1 1 1 1 1 1 1 1 1 1 1 1 1 1 1 1 1 1 1 1 1 1 1 1 1 1 1 1 1 1 1 1 1 1 1 1 1 1 1 1 1 1 1 1 1 1 1 1 1 1 1 1 1 1 1 1 1 1 1 1 1 1 1 1 1 1 1 1 1 1 1 1 1 1 1 1 1 1 1 1 1 1 1 1 1 1 1 1 1 1 1 1 1 1 1 1 1 1 1 1 1 1 1 1 1 1 1 1 1 1 1 1 1 1 1 1 1 1 1 1 1 1 1 1 1 1 1 1 1 1 1 1 1 1 1 1 1 1 1 1 1 1 1 1 1 1 1 1 1 1 1 1 1 1 1 1 1 1 1 1 1 1 1 1 1 1 1 1 1 1 1 1 1 1 1 1 1 1 1 1 1 1 1 1 1 1 1 1 1 1 1 1 1 1 1 1 1 1 1 1 1 1 1 1 1 1 1 1 1 1 1 1 1 1 1 1 1 1 1 1 1 1 1 1 1 1 1 1 1 1 1 1 1 1 1 1 1 1
        </DataArray>
      </Cells>
      <PointData Scalars="overlap">
        <DataArray type="Float32" Name="overlap" format="ascii">
 0.0001342611 0.0000761188 0.0001072427 0.0001233696 0.0000468706 0.0000890186 0.0000517933 0.0001301065 0.0000535178 0.0002469755 0.0003214563 0.0000145823 0.0000465582 0.0000206002 0.0003244188 0.0000101872 0.0002307319 0.0000970063 0.0001352999 0.0003465570 0.0001930933 0.0002594466 0.0002120781 0.0002893980 0.0002261304 0.0001078835 0.0004447203 0.0001426203 0.0000686187 0.0000405968 0.0000249019 0.0001582227 0.0001614672 0.0000958641 0.0000965057 0.0000549836 0.0002430212 0.0002494165 0.0005629424 0.0000652438 0.0001919102 0.0000847393 0.0001284899 0.0001794603 0.0002112806 0.0003820087 0.0001645013 0.0000654965 0.0001880310 0.0000516281 0.0000283917 0.0000036521 0.0000129470 0.0000940645 0.0002881568 0.0001856100 0.0000317511 0.0001199416 0.0000167742 0.0000152513 0.0000724998 0.0000565388 0.0002008512 0.0000234388 0.0000953650 0.0000043403 0.0000278778 0.0001532971 0.0000433842 0.0000179486 0.0001274684 0.0000920288 0.0000992277 0.0000768707 0.0000471718 0.0000034813 0.0000411077 0.0000492067 0.0000552042 0.0000175680 0.0000452710 0.0000016046 0.0000106255 0.0000112305 0.0000987734 0.0000696430 0.0000268744 0.0000422232 0.0000220732 0.0000411162 0.0000286547 0.0000648319 0.0000045862 0.0000266758 0.0000792995 0.0000946397 0.0001074793 0.0000908417 0.0000423093 0.0001099673 0.0000040280 0.0000488442 0.0000049892 0.0000500775 0.0000197241 0.0000522369 0.0000161365 0.0000062748 0.0000913411 0.0000460970 0.0000175140 0.0000910815 0.0000106351 0.0001262810 0.0000173542 0.0000519204 0.0000314189 0.0001706700 0.0000058293 0.0002720895 0.0001115775 0.0001259020 0.0001071526 0.0000397794 0.0001002446 0.0000335507 0.0000258299 0.0000006032 0.0000182639 0.0000552026 0.0001857121 0.0000324485 0.0001247357 0.0001105101 0.0000614971 0.0000461888 0.0000423701 0.0000514430 0.0000663012 0.0000226822 0.0001176695 0.0002492192 0.0001378097 0.0000078463 0.0000190778 0.0000210404 0.0000916445 0.0000475282 0.0000722653 0.0000244312 0.0000293454 0.0000030461 0.0000247299 0.0000271594 0.0000486311 0.0000113241 0.0001098602 0.0000703109 0.0000592377 0.0000223791 0.0000308796 0.0000870729 0.0000372448 0.0000039024 0.0002055246 0.0000287145 0.0001770836 0.0000494229 0.0000206860 0.0001373413 0.0001002047 0.0001330754 0.0000098723 0.0000702073 0.0000974219 0.0000418325 0.0000266443 0.0000415332 0.0000495356 0.0000560925 0.0001829236 0.0001188045 0.0000000684 0.0000275253 0.0000030295 0.0000168587 0.0000108827 0.0000840899 0.0000273911 0.0000947871 0.0000235771 0.0000357719 0.0000323533 0.0000053144 0.0000915656 0.0000528801 0.0000448411 0.0001332694 0.0000403174 0.0000907169 0.0001292832 0.0000127140 0.0000072106 0.0000573234 0.0000045934 0.0000121106 0.0000098686 0.0000414596 0.0000832575 0.0000310408 0.0000283597 0.0000035726 0.0000188624 0.0000426719 0.0000200429 0.0000442444 0.0000335291 0.0000066840 0.0000620140 0.0000299613 0.0000465607 0.0000757001 0.0000391369 0.0000172563 0.0000141266 0.0000239853 0.0000268254 0.0000136876 0.0000228774 0.0000007135 0.0000268462 0.0000050640 0.0000240265 0.0000597380 0.0000111022 0.0000504961 0.0000013015 0.0000202007 0.0000064580 0.0000199262 0.0000318089 0.0000050048 0.0000070912 0.0000474893 0.0000149676 0.0000222926 0.0000824484 0.0000134849 0.0000610313
        </DataArray>
        <DataArray type="Float32" Name="contact normal" NumberOfComponents="3" format="ascii">
 0.5780526847 -0.0712682243 -0.8128812545 -0.5085663382 0.7862368356 -0.3509870625 0.3611143335 0.8971538306 0.2543844382 -0.4813725649 0.7790259478 -0.4017449769 -0.6124808933 0.7563417927 -0.2298135070 -0.6517226801 0.0540820733 -0.7565267197 -0.5478049711 0.0026514462 -0.8366018668 0.2603591287 -0.6814068281 -0.6840305978 -0.7542244773 0.6499242725 -0.0935087046 -0.7088218174 0.6963743365 -0.1124029119 -0.3003610176 -0.9336993602 -0.1949070646 -0.3016323730 -0.8333418446 -0.4632054421 0.5545733168 -0.5410856866 0.6321983202 0.5594601579 -0.5336969539 0.6341702398 0.5947866339 -0.4762504125 0.6476221157 -0.7362138799 0.1521901802 -0.6594143402 -0.7094388748 0.0005551706 -0.7047667520 -0.1588229767 -0.2003131430 0.9667729345 -0.9284890336 0.3122032206 -0.2010901874 0.9375572762 -0.1943916637 0.2884410425 0.9623255711 -0.1786403168 0.2049808100 -0.9802244829 -0.1943169747 -0.0374282833 -0.9747428683 -0.2129052987 -0.0674364472 -0.9605543927 0.1369773543 0.2420174852 -0.9269889821 0.3734226818 0.0353118660 0.9332776304 0.0359028603 0.3573567535 0.9091702563 -0.0858943046 0.4074697701 -0.1077119079 -0.6198825077 0.7772668921 -0.0319389701 -0.5899807364 0.8067853697 -0.0676039715 -0.6786145766 0.7313767561 0.1909106752 -0.9770837670 0.0941298381 0.1909426168 -0.9770766991 0.0941384150 0.3597875879 0.9330341170 -0.0004775760 0.1483064217 0.6369810030 -0.7564789535 0.1812236884 0.6034435274 -0.7765396860 -0.5548124694 -0.0719679743 -0.8288568842 -0.7731901558 0.6022582849 0.1986502988 -0.4733981341 0.5676692516 0.6735323507 -0.4111512446 0.5880800662 0.6965030436 -0.4483509569 0.5957319016 0.6663969694 0.8115412677 0.1824642106 0.5550743938 0.1636843074 -0.7558374347 0.6339694156 0.3317972508 -0.7843937073 -0.5240582947 0.3381723542 -0.7781024318 -0.5293354934 0.4315627523 -0.7164116820 -0.5481860020 0.4147895978 -0.7284610699 -0.5452467874 0.4031233124 -0.7365817839 -0.5430827475 0.0555706757 0.8598220371 -0.5075607988 0.7263384277 -0.4362465047 0.5311510856 -0.7838179160 0.2676433406 -0.5603539210 -0.7787029875 0.2476273325 -0.5764567299 -0.6181994739 0.7108038765 -0.3355402503 -0.7788796419 0.3121582893 -0.5439703171 -0.7778835700 0.2789472750 -0.5631035156 0.3840174604 0.4912699481 0.7817828524 -0.1902208046 -0.3688915020 -0.9097994863 0.4781627669 -0.8774114316 -0.0388529031 -0.9101387862 0.3296472767 -0.2509582888 -0.7894546603 0.6023437018 0.1180821930 0.1982893999 -0.5248332161 -0.8277870554 -0.6203945000 -0.1596889479 -0.7678607323 -0.4846433517 -0.1409484309 -0.8632811602 0.4456997337 -0.7619939473 0.4698052487 -0.8058219061 -0.0607833653 -0.5890300826 0.8067900570 -0.3890224403 0.4446924160 -0.6812701698 0.7290874543 -0.0655929856 0.0877995932 -0.4896188216 0.8675048363 0.1316340063 0.5770645318 0.8060204802 -0.3020849937 -0.8296300037 0.4695303116 0.7515129097 -0.4054387895 0.5204303359 0.7482158329 -0.3000948985 0.5917061089 -0.3609054733 0.6381963529 -0.6800387155 0.8468619364 0.4924329290 -0.2008349349 0.0121564171 0.9082576246 0.4182347533 -0.1522369011 0.6301774752 0.7613805065 -0.3338386104 0.6401315471 -0.6919417495 -0.3338803161 0.6401440353 -0.6919100727 -0.2847316193 0.6449132078 -0.7092354048 -0.3338956384 0.6401422588 -0.6919043222 -0.3338020267 0.6401531106 -0.6919394496 -0.3338997867 0.6401417778 -0.6919027654 -0.3339985936 0.6401303160 -0.6918656792 -0.3338997902 0.6401417774 -0.6919027641 -0.3339979252 0.6401303938 -0.6918659299 0.7228235268 -0.5247086499 0.4496743064 0.7244692473 -0.5180734903 0.4546912890 -0.2901708459 -0.9114804876 -0.2915547990 0.2285655080 -0.5020165187 -0.8341086401 -0.2791766514 -0.2293907284 -0.9324378215 0.5522030034 0.0217971506 0.8334246980 0.5525255082 0.0214180314 0.8332207575 0.5526623057 0.0212574948 0.8331341397 0.5524795625 0.0214720501 0.8332498329 0.5531200745 0.0207185819 0.8328438770 0.5529295560 0.0209430566 0.8329647619 0.5530209829 0.0208450134 0.8329065241 0.5530076030 0.0210792211 0.8329095134 0.5525931982 0.0216252366 0.8331705147 -0.5666972316 -0.2076152038 -0.7973394351 0.5538502965 0.0222232389 0.8323196361 -0.5165701729 -0.1030114833 -0.8500258177 -0.5203446822 -0.0963151139 -0.8485074016 -0.5038691622 -0.1227847346 -0.8550086411 -0.2431630736 -0.2576757396 -0.9351336444 0.8603891807 0.5093213592 0.0179502305 0.8780062294 0.4623580191 -0.1238148750 -0.2864813472 0.4578163057 -0.8416250163 -0.5524853064 -0.0160319023 -0.8333684445 -0.5532434842 -0.0124428693 -0.8329266608 -0.5736342273 0.0142262613 -0.8189880260 -0.5535857466 -0.0115055060 -0.8327127023 -0.6692739263 0.4930586961 -0.5558466819 -0.0429721157 0.5715907177 0.8194128683 0.2397455795 0.2201862983 -0.9455369116 0.2572598065 0.2820312183 -0.9242704062 0.6795130318 0.7295048619 -0.0780044624 -0.7824275988 0.2462856359 0.5719706621 -0.7845026255 0.2444904843 0.5698947567 -0.7799396526 0.2491978300 0.5741032832 0.6092256949 -0.6858963024 0.3979828074 0.1495317346 0.9369640580 -0.3158142087 -0.7964778681 -0.4681261603 -0.3827282374 -0.4083234223 0.6208307734 -0.6692093346 -0.3710172005 0.5840183192 -0.7219895012 0.7201290950 -0.0927254911 0.6876162227 0.7201219460 -0.0926965130 0.6876276168 0.7817086910 -0.1279536693 0.6103764256 -0.4134124315 -0.4930919793 -0.7654740109 -0.4136194656 -0.4930124178 -0.7654134135 -0.7693216194 0.3975260667 -0.5001172585 -0.7693266829 0.3975349868 -0.5001023787 -0.4137450511 -0.4928255408 -0.7654658836 -0.7693311686 0.3975428886 -0.5000891968 0.2372804387 -0.9393109046 0.2477761448 0.8289221426 -0.0453957131 0.5575188883 -0.4140721705 -0.4925711553 -0.7654527383 0.2946990045 -0.9483610402 0.1173193684 -0.4150255097 -0.4927410365 -0.7648268413 0.1382555435 -0.8857869195 0.4430202456 0.5701309786 0.0567928101 0.8195884601 -0.7021029971 0.3959619850 0.5918323141 0.6564191635 0.2305663491 0.7182987126 -0.9005061999 0.4026416618 0.1642202061 -0.4668370126 -0.7090477281 -0.5285021504 -0.4478576021 0.3146560744 0.8369080733 -0.8967240705 0.4320145279 -0.0961737444 -0.0305477282 -0.4211328052 -0.9064844161 -0.5255426039 0.0437752751 -0.8496403338 0.6637608816 0.3296502741 -0.6713808076 -0.1068584876 0.1099710822 -0.9881738838 0.2458861938 0.9549230144 0.1663190193 0.0236718705 -0.3576147680 0.9335691299 0.0328842176 -0.3658114130 0.9301078638 -0.1975481304 -0.3566705574 -0.9131050595 -0.4234710485 0.3997040912 -0.8129630438 0.9527353885 0.2865119599 -0.1010256221 0.5716301704 0.7726008400 0.2762732168 0.5229125503 0.8193507459 0.2350038721 0.0398535611 0.9076061191 0.4179268192 -0.4063878628 0.6585180030 -0.6334058294 -0.3429764754 0.6891476877 -0.6383123074 -0.3672216147 0.6790517920 -0.6356390088 -0.8236417026 0.4859741972 -0.2923070738 -0.8078304588 0.5241760185 -0.2695356218 0.4703284922 -0.6301324377 0.6178383449 0.4722003324 -0.6208840421 0.6257234632 -0.7630316457 0.6446664398 -0.0467748760 -0.5727463107 -0.7836152253 0.2406425614 0.1610550433 -0.5901640701 -0.7910547664 -0.7541394957 0.6566870918 -0.0059736483 -0.7651865372 0.4194289864 -0.4884351428 -0.8475228351 0.3136080737 -0.4281997432 -0.6865803693 0.6675607603 0.2880451835 -0.6946494345 0.6433927467 0.3217264934 -0.3212869909 -0.3137447031 0.8934981426 -0.8280482049 0.4130001415 -0.3791662609 -0.3153246116 0.5647745060 -0.7626271348 -0.3538967255 0.6006069666 -0.7169577250 -0.4036265449 0.2490784052 0.8803667192 -0.4028809585 0.2434657732 0.8822762326 0.6455107150 0.7628769373 -0.0365334826 -0.6137511500 0.1050775682 0.7824757060 -0.5129168027 -0.2360511270 -0.8253461207 -0.2258859268 -0.2233468036 -0.9482044892 0.1773494766 -0.5225215028 -0.8339774831 -0.1689961214 0.0097587758 -0.9855684031 0.8893475523 0.3991057782 0.2231042561 -0.7640596159 0.4820846112 -0.4287275720 0.8947675972 -0.2580910875 0.3643898154 -0.7708718584 -0.1434109353 -0.6206366744 -0.5759837554 -0.8121257238 0.0932444220 0.7782896069 0.0846054956 0.6221793936 0.0180247010 -0.1616600649 -0.9866818806 -0.0481350810 0.1642595230 0.9852420124 -0.3102144891 0.8977094528 -0.3128653211 -0.9223362831 -0.0986417944 -0.3735847659 -0.8860718497 0.1354469403 -0.4433179485 0.4114288539 -0.4046817248 0.8166755780 -0.4708200853 0.4787470341 -0.7410328769 -0.4627240315 0.2987121673 -0.8346601175 0.7873949124 -0.4486568651 0.4227484705 -0.8882718132 0.0957843264 -0.4492199335 0.7147474778 0.1361981727 0.6859927847 -0.8599189174 0.0869105334 -0.5029771512 0.1824770316 -0.5930497482 -0.7842156139 0.1830087543 -0.5924851710 -0.7845183988 0.1866495729 -0.5896040114 -0.7858301640 -0.4459100940 0.8936537624 0.0504692084 -0.5543321629 0.4588360637 -0.6943956508 -0.5577674491 0.4442928157 -0.7010701581 0.6946959680 0.4056762765 0.5939901268 0.6952417101 0.3784849056 0.6110549409 -0.2591850428 0.8450080578 -0.4677440496 -0.2653873998 0.8681254865 -0.4194373228 -0.4063350310 -0.8996870169 0.1595465893 0.9951004745 -0.0625804881 -0.0765423286 0.8163296126 0.2722096261 -0.5094191625 0.4834866052 -0.7050665113 0.5187696187 -0.7511888193 0.3528381023 -0.5578715186 -0.3755658870 0.5978570252 -0.7081788206 0.4534251696 -0.7205381208 0.5246240864 0.4535840803 -0.7203309197 0.5247712342 0.4535577176 -0.7203150781 0.5248157630 0.4535477824 -0.7203141375 0.5248256400 0.4535607428 -0.7203144043 0.5248140734 0.4535981460 -0.7203151534 0.5247807178 -0.4438140866 0.8117683764 -0.3795538957 -0.4059402845 0.8933795868 -0.1925756978 -0.3477821020 0.9218845289 -0.1708113722 0.8873277516 -0.3871732508 0.2504921858 0.8682126966 -0.2667958393 -0.4183619170 0.0298365970 -0.2623342722 0.9645156853 0.3434841879 -0.8636903824 0.3688597782 0.5868415312 -0.1392262328 -0.7976421963 0.5126862359 -0.3188021537 -0.7971938348 -0.4202475602 -0.8867591531 0.1924842655 -0.5799436792 0.8091202766 -0.0948140649 0.2682130437 -0.2491008587 0.9305968651 -0.5611774655 -0.0442996562 -0.8265091607 0.6482172826 0.3144839110 0.6934797937 -0.0897530674 0.8250583544 -0.5578737301 -0.0708302688 0.8148471338 -0.5753322706 -0.5159627328 -0.0906646400 -0.8517994960 -0.9122339556 0.3011760861 0.2777087962 -0.4910594055 0.5591431667 -0.6679966911 -0.5313490459 0.5396191302 -0.6530538919 -0.0913278035 0.2426327680 -0.9658098012 0.4251275770 -0.3062630568 0.8517449638 0.4204031153 -0.3556353691 0.8347363086
        </DataArray>
        <DataArray type="Float32" Name="contact force" NumberOfComponents="3" format="ascii">