<?xml version="1.0"?>
<VTKFile type="UnstructuredGrid" version="0.1" byte_order="LittleEndian">
  <UnstructuredGrid>
    <FieldData>
      <DataArray type="Float32" Name="TIME"  NumberOfTuples="1" format="ascii"> 1.8500000000 </DataArray>
      <DataArray type="Int32"   Name="STEP"  NumberOfTuples="1" format="ascii"> 185000 </DataArray>
    </FieldData>
    <Piece NumberOfPoints="256" NumberOfCells="256">
      <Points>
        <DataArray type="Float32" NumberOfComponents="3" format="ascii">
 5.3519839853 0.1660435404 -5.2441262860 5.3881106611 0.1067953477 -5.3446836676 5.4735338347 0.1062576099 -5.2185853676 5.3996207307 0.1027740638 -5.3545069012 5.4845558719 0.1049552080 -5.2359308533 5.5284020867 0.0868382325 -5.3858956410 5.5235467886 0.3217112729 -5.2153353061 5.5350927795 0.3172085337 -5.2233167360 5.5358733645 0.4072885273 -5.2308636800 5.6300483305 0.1647877231 -5.4325931857 5.6376021531 0.1717887857 -5.4330745480 5.5950215873 0.4286363576 -5.3249435334 5.6014732975 0.4303379180 -5.3389282534 5.5721101029 0.3709790062 -5.5012727686 5.5819118406 0.3692978444 -5.5111985475 5.6009943052 0.3862252854 -5.5203393235 5.7221376944 0.3780261009 -5.3851789358 5.7330349140 0.3709583081 -5.3943898496 5.7496005271 0.3650056585 -5.4906052920 6.0051134852 0.2517199610 -5.0510609007 5.9515089657 0.3111121206 -5.1382758430 5.9517044547 0.3070503688 -5.1470356158 6.0372277904 0.5107400997 -5.2084410087 6.0379552700 0.5029179032 -5.2292527333 6.0344982106 0.2836798151 -5.2689400092 6.0351192448 0.2975346920 -5.2764388439 5.9905982529 0.4652552070 -5.3341537146 5.9839242189 0.4461379642 -5.3200444933 5.1862708035 0.7345663652 -5.0581661777 5.1963577920 0.7362369649 -5.0563483930 5.1999814203 0.7273692714 -5.0625741372 5.1255143582 0.8200879890 -4.8887146646 5.1628417383 0.6506300248 -4.9741526116 5.1493528699 0.7128132004 -4.8435626453 5.1569421836 0.7072974801 -4.8466627953 5.5732645937 0.7132586817 -5.1527275056 5.6638618417 0.7200743773 -5.2235076597 5.5698267923 0.7076835794 -5.2717931634 5.5736629531 0.7118106516 -5.2751429593 5.5684238337 0.7136298653 -5.2782146754 5.4333193865 0.7242016397 -5.2185627587 5.6677063379 0.8278210625 -5.2733769052 5.5066474958 0.8083429577 -5.1885253552 5.5013633905 0.8094857409 -5.1937309763 5.5095638334 0.8138202985 -5.1937656913 5.5047874093 0.8152263845 -5.1993010323 5.5005223896 0.8172153157 -5.2055201314 5.4350069676 0.3800364840 -4.7703842869 5.2713222908 0.5700345140 -4.8608054666 5.5101712617 0.4561078354 -4.8222323786 5.5177078968 0.4563207435 -4.8320798341 5.5220908798 0.4722874825 -4.8307488981 5.5284220888 0.4714474539 -4.8394178369 5.4180057337 0.3841984947 -4.9846240026 5.3762534450 0.6640928583 -4.7180932317 5.3732311148 0.7061791155 -4.9304187281 5.5953222891 0.4574209095 -4.9630902775 5.6029653849 0.4688190335 -4.9635322423 5.4388258251 0.7936741961 -4.8182074549 5.5813529375 0.7519419455 -4.8606333284 5.5924417351 0.7705426837 -4.8715286531 5.5072093879 0.8464846107 -5.0223743123 5.7233222608 0.7094229043 -4.9957184610 5.9041082974 0.2876934156 -5.1493079824 5.8836543253 0.1399872685 -5.1494407074 5.6030907761 0.0359538044 -5.3419579282 5.7001463303 0.2096446014 -5.3011827119 5.7805562074 0.3456150312 -5.2760880805 5.7911695757 0.3533800676 -5.2740891971 5.6213448514 0.2692623992 -5.1688282208 5.6944581946 0.1700268137 -5.0611136538 5.5862156144 0.2057555629 -5.0895851537 5.1836524326 0.3756089887 -5.0733564120 5.1786057245 0.3699163329 -5.0631862114 5.1755832207 0.3921141665 -4.9436868081 5.1812561914 0.4011697620 -4.9378464077 5.1781079920 0.4092389894 -4.9290784083 5.1836183739 0.4162657386 -4.9250989789 5.1805122920 0.4230730375 -4.9174558621 5.1828425127 0.4355516004 -4.9070643651 5.1796976790 0.4424683781 -4.8993237150 5.1394388437 0.5332966603 -4.9703656493 5.1438761337 0.5385093952 -4.9718149461 5.1981875144 0.5727701286 -4.8417243035 5.1935460829 0.5817553052 -4.8497437859 5.2698351123 0.3074345155 -4.8993290409 5.3303140528 0.2296267348 -4.9994322036 5.3263182594 0.2208370494 -4.9967005471 5.3358599486 0.2305063221 -5.0030105385 5.3206387839 0.2146334496 -4.9929346089 5.3322577796 0.2203879177 -5.0004955202 5.3409350830 0.2331798359 -5.0063189603 5.3457636816 0.2378036655 -5.0095060683 5.3505741321 0.2448084149 -5.0127221533 5.3556466379 0.2550367946 -5.0161481388 5.2162885588 0.2289735690 -4.8552731871 5.3623246595 0.2536191852 -5.0204191288 5.4173364622 0.2466980224 -4.9556396867 5.4236566850 0.2548151704 -4.9602867587 5.4315953807 0.2520004103 -4.9643361202 5.2476697724 0.1552314602 -4.8548993114 5.2041026722 0.0805785952 -4.8849462071 5.2174384695 0.0579310753 -4.8956682671 5.2955773896 -0.0241070519 -4.8879435048 5.4220146872 0.0535823896 -4.9469388548 5.4340230072 0.0734410334 -4.9546898333 5.4395592577 0.0836792703 -4.9582577129 5.4462219308 0.0887981306 -4.9626370945 5.9240725043 0.1590966285 -5.3107486870 5.8792258287 0.0795558763 -5.3186257461 5.9572081794 0.0941017642 -5.1292660922 5.4877275242 0.1713001114 -4.8977412462 5.4386471021 0.2535776003 -4.8969140307 5.8085597850 0.6711846207 -5.0143289096 5.7553268112 0.6035613358 -5.1694418343 5.8512493981 0.6615272193 -5.1526191795 5.8484004325 0.6645096904 -5.1582837112 5.8516078507 0.6707715885 -5.1561327243 5.7746731605 0.7352331657 -5.1657693026 5.5291190517 0.4741956562 -5.2003401664 5.6029154246 0.4798777003 -5.2025181613 5.6072294731 0.4988986761 -5.1967326797 5.6159892191 0.4921534471 -5.2070682987 5.4973896352 0.5377055569 -5.3319619092 5.5091356551 0.5502474262 -5.3424567305 5.6890655035 0.6308209829 -5.2781131024 5.6974382807 0.6339197747 -5.2844251971 5.7455199530 0.4552899087 -5.3717688677 5.7528575861 0.4659479159 -5.3740959235 5.7061116156 0.6372121378 -5.2910119141 5.7599580053 0.4763255293 -5.3765029042 5.6039126492 0.7242883790 -5.3791278130 5.6107761669 0.7367052776 -5.3789750750 5.7154774797 0.6409405816 -5.2982207385 5.6113554165 0.7233639926 -5.3887756938 5.7261170628 0.6454663782 -5.3065640128 5.6755489090 0.7503804494 -5.3752654282 5.6808372716 0.6233618346 -5.4962388893 5.7800528516 0.5543659873 -5.4685932826 5.6937852487 0.6367729596 -5.5079245091 5.8386983303 0.6651024596 -5.4022064208 5.5754110755 0.0939646542 -4.9857252538 5.5732453696 -0.0032008846 -4.9243741700 5.3998172622 0.0876285503 -4.8514725318 5.4818237620 0.0326290431 -4.8427897320 5.4744931566 0.0355218363 -4.8381635737 5.4043085179 -0.0148496546 -4.8184582869 5.3952602309 -0.0068371869 -4.8274505707 6.0648675092 0.4094626627 -5.2186311041 5.2932092864 0.0303186193 -5.1638546613 5.2990029580 0.0617457788 -5.1258865408 5.3050432048 0.0612275041 -5.1263617074 5.3193156548 0.1214559619 -5.1879995448 5.3228473413 0.1192619210 -5.1889264358 5.3230653147 0.1246219051 -5.1868082593 5.3267852675 0.1224603883 -5.1877642222 5.3438540973 0.1459057527 -5.1207555449 5.3526117933 0.1515404448 -5.1224618684 5.1460647745 0.8428777455 -4.8089897363 5.4423099088 0.4362792864 -5.1699758083 5.6485005042 0.5660497714 -5.5376427043 5.6407264100 0.5701331798 -5.5329996998 5.7435036451 0.0530728057 -5.3642718234 5.7205289319 0.0622306724 -5.3202784926 5.7305234827 0.0670351121 -5.3198690768 5.7239799785 0.0684329112 -5.3155373067 5.8147312191 0.1034204562 -5.3772366849 5.6845473659 0.1731113340 -5.4039518998 5.6893642623 0.1770488993 -5.4043173501 5.6244163244 0.0970902817 -4.8683864925 5.6258127314 0.0982986632 -4.8777234597 5.9249329851 0.5879084966 -5.3685698946 5.8913858144 0.5807950502 -5.2779287894 5.8903827596 0.4560533579 -5.3437956755 5.8898260377 0.4513569496 -5.3483450930 5.8859899184 0.4487507701 -5.3436752669 5.8399204718 0.3659517401 -5.4099958850 5.5269018159 0.0882788486 -4.7788851413 5.2551451694 0.7731303854 -5.1779094358 5.8165034700 0.6264292299 -5.2523469941 5.7217058305 0.5717618749 -5.1894600687 5.7141635895 0.5755390273 -5.1833076938 5.2479984874 0.8197207951 -4.8212008420 5.2550587975 0.8188877395 -4.8175886713 5.2018552655 0.2154535241 -5.0960734993 5.2828518221 0.2192102628 -5.1938878135 5.3393303274 0.0800737090 -4.8062299606 5.3740028483 0.1204528513 -4.8266878410 5.6954461981 -0.0046426186 -5.1226631504 5.6609031967 -0.0055805753 -5.1499641143 5.4599321554 0.8202791171 -4.7433929117 5.3211271627 0.8571540018 -4.8641546990 5.7348074637 0.1160486401 -5.0049216940 5.7371490940 0.1148034129 -5.0102016858 5.6238855643 0.1175530486 -5.0173967666 5.8516836899 0.3098347111 -5.4991422328 5.2894201560 0.8139615341 -5.1914374056 5.4072599452 0.7764467365 -5.2708086365 5.6851833980 0.7338785629 -4.8912978048 5.6789612277 0.7337206920 -4.8143353406 5.5013963640 0.7733263961 -4.7399141784 5.3494005108 0.7461814860 -5.0818981973 5.4082725080 0.8705124154 -5.0484483674 5.4170400822 0.8720135168 -5.0604769460 5.3892719051 0.8481390543 -5.0770281055 5.1304001444 0.1424119413 -5.0162965220 5.1986336161 0.0714838822 -5.0924151783 5.7513464653 0.8780534986 -5.2807933499 5.8427281852 0.8674832196 -5.2299993486 5.7435612226 0.8806723069 -5.2719092919 5.8397169924 0.8460154470 -5.2288085945 5.8838004882 0.6398375094 -5.2037022350 5.8865798575 0.6445893841 -5.2065609528 5.8830248439 0.6476310640 -5.2098113975 5.9088411629 0.3539988534 -5.3323621987 5.7458054239 0.0296368491 -5.2504293545 5.7474532699 0.0243712659 -5.2572110450 5.8411642437 0.0181863766 -5.4141143069 5.8532673083 0.0040850555 -5.3669625590 5.8515172313 0.0068622713 -5.3573406919 5.3121742869 0.0971626690 -5.2554709673 5.3744860138 0.2708085825 -5.2058326814 5.7651045701 0.8380271125 -5.3939465390 5.7650753029 0.8466114244 -5.3932488307 5.6867568638 0.8717537652 -5.3681116636 5.5695707466 0.4273356011 -4.7501698934 5.4075813026 0.5399979820 -4.6339225754 5.6890149272 0.1020527897 -5.6040448493 5.6966496775 0.1126437386 -5.5959804299 5.6983544675 0.1176262828 -5.5906154005 5.7006398706 0.1216026941 -5.5870873213 5.7036083626 0.1249478778 -5.5849787248 5.7074730304 0.1278856039 -5.5841547522 5.7313131910 0.0131506805 -5.1829312610 5.7206379116 0.0111174037 -5.1762583837 5.7519419300 0.0194195914 -5.1930692136 5.6417025250 0.0251910895 -5.1506064720 5.7502072799 0.2801513896 -5.5646178164 6.1336970008 0.3086660712 -5.1511024632 5.1848815698 0.5664280446 -5.0385124540 5.1763718042 0.5538729782 -5.0407612978 5.3272227108 0.5992746233 -5.0698412276 5.3144169801 0.4719583615 -5.1615717488 5.4086750617 0.4462880169 -5.2793588113 5.4121776345 0.3811531578 -4.7265510975 5.3291688613 0.2556479072 -4.7828221904 5.3725075741 0.2341189880 -4.7285861092 5.6171608271 0.0004335778 -4.9371797232 5.6035731946 -0.0233359288 -4.8775637554 5.6018813325 -0.0254241128 -4.8721189615 5.6019085303 -0.0243347121 -4.8682514894 5.2312649034 0.3656317062 -4.8803882388 5.2249417459 0.3627841322 -4.8779529162 5.7354752614 -0.0537317991 -5.0416477646 5.4700053851 0.8652409252 -5.1079856923 5.4632937992 0.8590994995 -5.1073173644
        </DataArray>
      </Points>
      <Cells>
        <DataArray type="Int32" Name="connectivity" format="ascii">
 0 1 2 3 4 5 6 7 8 9 10 11 12 13 14 15 16 17 18 19 20 21 22 23 24 25 26 27 28 29 30 31 32 33 34 35 36 37 38 39 40 41 42 43 44 45 46 47 48 49 50 51 52 53 54 55 56 57 58 59 60 61 62 63 64 65 66 67 68 69 70 71 72 73 74 75 76 77 78 79 80 81 82 83 84 85 86 87 88 89 90 91 92 93 94 95 96 97 98 99 100 101 102 103 104 105 106 107 108 109 110 111 112 113 114 115 116 117 118 119 120 121 122 123 124 125 126 127 128 129 130 131 132 133 134 135 136 137 138 139 140 141 142 143 144 145 146 147 148 149 150 151 152 153 154 155 156 157 158 159 160 161 162 163 164 165 166 167 168 169 170 171 172 173 174 175 176 177 178 179 180 181 182 183 184 185 186 187 188 189 190 191 192 193 194 195 196 197 198 199 200 201 202 203 204 205 206 207 208 209 210 211 212 213 214 215 216 217 218 219 220 221 222 223 224 225 226 227 228 229 230 231 232 233 234 235 236 237 238 239 240 241 242 243 244 245 246 247 248 249 250 251 252 253 254 255
        </DataArray>
        <DataArray type="Int32" Name="offsets" format="ascii">
 1 2 3 4 5 6 7 8 9 10 11 12 13 14 15 16 17 18 19 20 21 22 23 24 25 26 27 28 29 30 31 32 33 34 35 36 37 38 39 40 41 42 43 44 45 46 47 48 49 50 51 52 53 54 55 56 57 58 59 60 61 62 63 64 65 66 67 68 69 70 71 72 73 74 75 76 77 78 79 80 81 82 83 84 85 86 87 88 89 90 91 92 93 94 95 96 97 98 99 100 101 102 103 104 105 106 107 108 109 110 111 112 113 114 115 116 117 118 119 120 121 122 123 124 125 126 127 128 129 130 131 132 133 134 135 136 137 138 139 140 141 142 143 144 145 146 147 148 149 150 151 152 153 154 155 156 157 158 159 160 161 162 163 164 165 166 167 168 169 170 171 172 173 174 175 176 177 178 179 180 181 182 183 184 185 186 187 188 189 190 191 192 193 194 195 196 197 198 199 200 201 202 203 204 205 206 207 208 209 210 211 212 213 214 215 216 217 218 219 220 221 222 223 224 225 226 227 228 229 230 231 232 233 234 235 236 237 238 239 240 241 242 243 244 245 246 247 248 249 250 251 252 253 254 255 256
        </DataArray>
        <DataArray type="UInt8" Name="types" format="ascii">
 1 1 1 1 1 1 1 1 1 1 1 1 1 1 1 1 1 1 1 1 1 1 1 1 1 1 1 1 1 1 1 1 1 1 1 1 1 1 1 1 1 1 1 1 1 1 1 1 1 1 1 1 1 1 1 1 1 1 1 1 1 1 1 1 1 1 1 1 1 1 1 1 1 1 1 1 1 1 1 1 1 1 1 1 1 1 1 1 1 1 1 1 1 1 1 1 1 1 1 1 1 1 1 1 1 1 1 1 1 1 1 1 1 1 1 1 1 1 1 1 1 1 1 1 1 1 1 1 1 1 1 1 1 1 1 1 1 1 1 1 1 1 1 1 1 1 1 1 1 1 1 1 1 1 1 1 1 1 1 1 1 1 1 1 1 1 1 1 1 1 1 1 1 1 1 1 1 1 1 1 1 1 1 1 1 1 1 1 1 1 1 1 1 1 1 1 1 1 1 1 1 1 1 1 1 1 1 1 1 1 1 1 1 1 1 1 1 1 1 1 1 1 1 1 1 1 1 1 1 1 1 1 1 1 1 1 1 1 1 1 1 1 1 1 1 1 1 1 1 1 1 1 1 1 1 1
        </DataArray>
      </Cells>
      <PointData Scalars="overlap">
        <DataArray type="Float32" Name="overlap" format="ascii">
 0.0001245640 0.0000045585 0.0001045080 0.0001038659 0.0000895252 0.0000293351 0.0000914340 0.0000541882 0.0001254928 0.0000513110 0.0002447913 0.0003273110 0.0000137126 0.0000449537 0.0000173624 0.0003166600 0.0000141121 0.0002326320 0.0000965385 0.0001321895 0.0003350161 0.0001931527 0.0002526872 0.0002376739 0.0002764397 0.0002167861 0.0001099298 0.0004367799 0.0000804651 0.0000897785 0.0000185868 0.0001714061 0.0001759039 0.0000804241 0.0000806875 0.0000591041 0.0002505518 0.0002483751 0.0005678507 0.0000670126 0.0001583959 0.0000861036 0.0001300621 0.0001804879 0.0002095658 0.0003796219 0.0001610382 0.0000802880 0.0002001674 0.0000387515 0.0000207569 0.0000105759 0.0000961163 0.0002958816 0.0001318906 0.0000429106 0.0001353817 0.0000345409 0.0000113024 0.0000641055 0.0000437329 0.0002160662 0.0000062715 0.0000850614 0.0000141982 0.0000243684 0.0001604845 0.0000528620 0.0000250114 0.0001378644 0.0000841276 0.0001089199 0.0000757219 0.0000451984 0.0000374032 0.0000455086 0.0000520656 0.0000142518 0.0000425558 0.0000082770 0.0000094988 0.0001031799 0.0000746341 0.0000313815 0.0000393107 0.0000135952 0.0000440754 0.0000309524 0.0000682627 0.0000061934 0.0000294191 0.0000832404 0.0000991493 0.0001126441 0.0000967945 0.0000423832 0.0001164177 0.0000027861 0.0000442224 0.0000006100 0.0000478394 0.0000164198 0.0000397716 0.0000242160 0.0000237109 0.0001049276 0.0000576845 0.0000281690 0.0000150420 0.0000065882 0.0000864935 0.0000098412 0.0000098907 0.0001881424 0.0000557068 0.0000467152 0.0001867212 0.0000255141 0.0002789068 0.0001419964 0.0001496334 0.0001235465 0.0000538041 0.0002817137 0.0000543111 0.0000044315 0.0000184937 0.0000572890 0.0001842398 0.0000289320 0.0001197872 0.0000558056 0.0001539436 0.0000385739 0.0000200131 0.0000390437 0.0000579934 0.0000351698 0.0001094748 0.0002712646 0.0001326077 0.0000228611 0.0000410511 0.0000925667 0.0000003106 0.0000114237 0.0000835139 0.0000117565 0.0000055662 0.0000059403 0.0000523387 0.0000128170 0.0000231378 0.0000425450 0.0000059769 0.0000217271 0.0000889185 0.0000254511 0.0000281080 0.0000246047 0.0001130220 0.0000796133 0.0000660347 0.0000196915 0.0000292613 0.0000849579 0.0000252174 0.0002144540 0.0000377139 0.0000120527 0.0001855713 0.0000463400 0.0000339487 0.0001398057 0.0001062626 0.0001380716 0.0000838573 0.0000134210 0.0001066580 0.0000376799 0.0000204706 0.0000326153 0.0000492600 0.0000555312 0.0001920342 0.0001477241 0.0000129495 0.0000223271 0.0000045064 0.0000028695 0.0000192503 0.0000037619 0.0000787758 0.0000050497 0.0000279019 0.0000010870 0.0000339526 0.0000228693 0.0000367135 0.0000614914 0.0000091804 0.0000919468 0.0000474556 0.0000411275 0.0001318577 0.0000337935 0.0000682860 0.0001306681 0.0000128819 0.0000081923 0.0000579307 0.0000179273 0.0000214495 0.0000004480 0.0000368767 0.0000825693 0.0000306067 0.0000184360 0.0000227930 0.0000473530 0.0002415201 0.0000362685 0.0000381793 0.0000189421 0.0000045887 0.0000378284 0.0000227511 0.0000466728 0.0000768376 0.0000405017 0.0000189277 0.0000161984 0.0000265815 0.0000253320 0.0000112119 0.0000241046 0.0000030395 0.0000246864 0.0000104953 0.0000707942 0.0000230310 0.0000573873 0.0000064124 0.0000144976 0.0000048393 0.0000151339 0.0000148848 0.0000308285 0.0000211306 0.0000187566 0.0000222414 0.0000156124 0.0000210509 0.0000867434 0.0000107498 0.0000571930
        </DataArray>
        <DataArray type="Float32" Name="contact normal" NumberOfComponents="3" format="ascii">
 0.5921495065 -0.0755729264 -0.8022765700 0.5816247660 0.6868544284 0.4358252239 -0.4864446769 0.7966995993 -0.3586660351 0.5716808860 0.7111142087 0.4092646416 -0.4585082752 0.7890079140 -0.4089458071 -0.5959527895 0.7626355220 -0.2514504587 -0.6370783564 0.0583664226 -0.7685860579 -0.5320497501 0.0061712513 -0.8466906041 0.2685679152 -0.6834469044 -0.6788015938 -0.7477473836 0.6551861997 -0.1077260134 -0.7016750269 0.7013054902 -0.1257885764 -0.3033373133 -0.9315977421 -0.2002801073 -0.2990113200 -0.8312418693 -0.4686461194 0.5389001430 -0.5447264617 0.6425416078 0.5438034070 -0.5373692704 0.6446022974 0.5792793134 -0.4801714068 0.6586887711 -0.7226359825 0.1571608219 -0.6731253322 -0.6960850332 0.0052854539 -0.7179398934 -0.1788269314 -0.1986549919 0.9636166887 -0.9223325937 0.3189284162 -0.2181450252 0.9305285200 -0.2008260939 0.3062442708 0.9569167362 -0.1853509688 0.2235069983 -0.9807138901 -0.1875307555 -0.0550679711 -0.9748120428 -0.2062088372 -0.0849670323 -0.9638796808 0.1437398278 0.2242204780 -0.9246415622 0.3803820133 0.0186414996 0.9267127993 0.0290298959 0.3746473713 0.9007747376 -0.0924500296 0.4243322569 -0.1331750551 -0.6253076004 0.7689309524 -0.0580143661 -0.5949766581 0.8016464992 -0.0934021549 -0.6851639329 0.7223755412 0.1926221161 -0.9765892394 0.0957610461 0.3667071740 0.9303201116 0.0055080474 0.1669525755 0.6355498341 -0.7537925748 0.1999856278 0.6017760607 -0.7732213923 -0.5398348800 -0.0683117333 -0.8389945229 -0.7725095170 0.6077983781 0.1838754409 -0.4819333846 0.5713104313 0.6643377182 -0.4200423159 0.5913129233 0.6884137416 -0.4566005118 0.5992014722 0.6576272259 0.8022906809 0.1770970057 0.5700581671 0.1471799178 -0.7566246825 0.6370691970 0.3360090486 -0.7868627092 -0.5176340369 0.3425313215 -0.7806270568 -0.5227749918 0.4366874912 -0.7196063461 -0.5398803031 0.4197670016 -0.7315432327 -0.5372524202 0.4079925944 -0.7395888869 -0.5353039522 0.0705780060 0.8592828814 -0.5066080091 0.7131180518 -0.4411699963 0.5448226120 -0.7716275671 0.2726134257 -0.5746936731 -0.7663533310 0.2525559582 -0.5906928644 -0.7666910516 0.3171037383 -0.5582383457 -0.7655681844 0.2838783535 -0.5773373671 0.3728201780 0.4889080288 0.7886533169 -0.1760827428 -0.3677792580 -0.9130899655 0.4727572858 -0.8806929385 -0.0296731673 -0.9029874922 0.3358719384 -0.2679619936 -0.7872563754 0.6079286828 0.1031993999 0.2098923203 -0.5266250840 -0.8237786321 -0.6070633725 -0.1555561584 -0.7792793744 -0.4694427040 -0.1378073518 -0.8721425809 0.4313691273 -0.7649053463 0.4783727493 -0.7950582066 -0.0551686687 -0.6040189286 0.7955829646 -0.3944513747 0.4598432987 -0.6747994472 0.7338396125 -0.0782632047 0.0673791607 -0.4789628858 0.8752454528 0.1207339861 0.5764606557 0.8081561835 -0.3162442494 -0.8273661698 0.4641710846 0.7387387247 -0.4105977299 0.5344853607 0.7348713813 -0.3050137294 0.6057480316 -0.3436190405 0.6403792878 -0.6869063420 0.8539452153 0.4863555576 -0.1850292973 0.0106331314 0.9083590875 0.4180558630 -0.1622244611 0.6316489331 0.7580915839 -0.3162103526 0.6421391113 -0.6983325673 -0.2667107331 0.6465524252 -0.7147274630 -0.3162257194 0.6421374540 -0.6983271329 -0.3161313576 0.6421476300 -0.6983604986 -0.3162298406 0.6421370094 -0.6983256755 -0.3162297909 0.6421370147 -0.6983256931 -0.3163286525 0.6421263461 -0.6982907269 0.7104782778 -0.5296433518 0.4633557346 0.7120767622 -0.5230179481 0.4684003744 -0.2910100038 -0.9095549146 -0.2966867624 0.2407736385 -0.5039803189 -0.8294768792 -0.2633258447 -0.2277581007 -0.9374357296 0.5366131680 0.0183066729 0.8436297610 0.5369368033 0.0179251022 0.8434320127 0.5370739731 0.0177636570 0.8433480894 0.5368907584 0.0179793968 0.8434601679 0.5375333353 0.0172212881 0.8430666288 0.5373420833 0.0174472840 0.8431838932 0.5374338443 0.0173486215 0.8431274449 0.5374219589 0.0175831406 0.8431301627 0.5370065423 0.0181323129 0.8433831826 -0.5533027808 -0.2041790027 -0.8075685529 0.5382828395 0.0187232161 0.8425562449 -0.5011886318 -0.0995795248 -0.8595893633 -0.5049422054 -0.0928559306 -0.8581440120 -0.4885426507 -0.1194428620 -0.8643260271 -0.2275116040 -0.2563175561 -0.9394358842 0.8635644019 0.5031074215 0.0337556840 0.8834862443 0.4559292305 -0.1076131632 -0.2673131072 0.4595569990 -0.8469658006 -0.5368967090 -0.0124185485 -0.8435565799 -0.5376387795 -0.0088221340 -0.8431291198 -0.5580951518 0.0179996140 -0.8295817111 -0.5379794595 -0.0078806987 -0.8429211088 0.6229397676 -0.7472984500 0.2312813711 0.8224180646 0.1225708183 0.5555222062 -0.6596025316 0.5019751393 -0.5594152839 -0.0525678620 0.5708674894 0.8193576322 0.7116667792 -0.5823579141 0.3929244904 0.3642433512 0.2304736185 -0.9023351330 0.6858091809 0.7248028054 -0.0657773568 -0.7912471862 0.2513548898 0.5574483022 -0.7932842812 0.2495765658 0.5553481673 -0.7887675745 0.2542745630 0.5596339519 0.5967237942 -0.6902160012 0.4092952298 0.1630881913 0.9364087528 -0.3107102985 -0.7926797193 -0.4613989684 -0.3984593511 -0.3914254174 0.6233111611 -0.6769559358 -0.3534486785 0.5862232554 -0.7289830770 0.7191450679 -0.1293652397 0.6827115101 0.7507982322 -0.1459268530 0.6442106550 -0.4024071293 -0.4905099918 -0.7729608336 -0.4026157173 -0.4904267883 -0.7729050068 -0.7569713823 0.4028215823 -0.5145183176 -0.7569766510 0.4028305285 -0.5145035618 -0.4027402987 -0.4902367817 -0.7729606392 -0.7569813177 0.4028384522 -0.5144904917 0.2127983023 -0.9451809650 0.2476889700 0.8160128920 -0.0624912334 0.5746458090 -0.4030670812 -0.4899776903 -0.7729545854 0.2741436180 -0.9542573369 0.1193239778 -0.4040341605 -0.4901382783 -0.7723476324 0.1226730654 -0.8868379453 0.4454994700 0.5550723999 0.0533542899 0.8300891221 -0.7101916022 0.4010681917 0.5785950171 0.6444430836 0.2264880389 0.7303398389 -0.9006097754 0.4090876192 0.1467969761 -0.4612413789 0.3182153846 0.8282483682 -0.8915779735 0.4384966878 -0.1131784964 -0.0166266660 -0.4212863207 -0.9067752698 -0.4580468928 0.0000586605 -0.8889280289 -0.5135500757 0.0454371087 -0.8568557573 0.6785273820 0.3240605823 -0.6592308631 0.6925659567 0.1017278346 -0.7141455337 -0.8595561085 0.4985248196 0.1124113009 0.2725869743 0.9572338415 0.0969521232 -0.0900943657 0.0842643112 -0.9923620968 -0.0502628121 0.0325243365 -0.9982063000 0.0041256735 -0.3578983797 0.9337514276 0.0132998387 -0.3661433650 0.9304634063 0.0098082679 -0.3624793202 0.9319402021 0.0172961054 -0.3698994504 0.9289107822 -0.1838703967 -0.3549761243 -0.9166153110 0.4557447819 -0.5608865361 -0.6911606090 -0.4053649533 0.4025436092 -0.8207544684 0.9563675361 0.2799819086 -0.0834941124 0.5721532439 0.7683148308 0.2869372516 0.5246224291 0.8153686362 0.2448372808 0.0384116453 0.9074718841 0.4183531106 -0.3899353345 0.6610512777 -0.6410629011 -0.3262285221 0.6912272878 -0.6448098852 -0.3505910128 0.6813050510 -0.6425802434 -0.8145960927 0.4915498988 -0.3079154149 0.4542945512 -0.6331954452 0.6266418346 0.4560863835 -0.6239668333 0.6345475567 -0.7495629322 0.6607298970 -0.0398925300 -0.7573125954 0.6501620848 -0.0613750468 -0.5826839548 -0.7794493485 0.2300828591 0.1716474898 -0.5914973071 -0.7878249012 -0.7490988202 0.6621497849 -0.0202143506 -0.7528716781 0.4247804099 -0.5027383412 -0.8370867556 0.3195860373 -0.4440163604 -0.6696256110 0.6721053436 0.3160315620 -0.0928859194 -0.3277695280 -0.9401804840 -0.3290203700 -0.3038865416 0.8940909159 -0.8179522980 0.4186459416 -0.3945752322 -0.2971235655 0.5665664335 -0.7685831531 -0.3362868477 0.6026886959 -0.7236556445 -0.4182469591 0.2523149010 0.8725861974 -0.4175765360 0.2466988738 0.8745110075 0.6514421868 0.7582947272 -0.0247423516 -0.6269446637 0.1095651959 0.7713208518 -0.4983548910 -0.2328321490 -0.8351236992 -0.2096712995 -0.2222557653 -0.9521766228 -0.9265465488 0.3681793982 0.0771713912 0.3917857959 -0.6933492112 0.6047898490 -0.1503440914 0.0105212902 -0.9885777444 0.8877890258 0.3930019659 0.2395414380 -0.7500054239 0.5052027878 -0.4269215471 -0.6603768023 0.5762384714 -0.4815098162 0.8860150192 -0.2640868303 0.3810977982 0.2347455385 -0.2859958799 0.9290322324 0.5129237123 0.0904200817 0.8536588746 -0.7600660235 -0.1383297539 -0.6349523754 0.7669518574 0.0793510945 0.6367795947 0.0351464654 -0.1619505408 -0.9861727781 -0.0652731946 0.1647751381 0.9841689712 -0.2980725367 0.8998035873 -0.3186004821 -0.9158693930 -0.0923887529 -0.3907013864 -0.8766724992 0.1413454701 -0.4598551807 0.3931734625 -0.4073356377 0.8243132333 -0.4533926955 0.4816217811 -0.7499836822 -0.4493741091 0.2743359234 -0.8501780468 0.7761767003 -0.4539896748 0.4375421182 -0.8789947478 0.1019057989 -0.4658148145 0.7027482171 0.1314943843 0.6991810712 -0.8497089742 0.0928117398 -0.5190189208 0.1939110088 -0.5949377590 -0.7800305017 0.1976081319 -0.5920721140 -0.7812820477 0.1931956547 -0.5929039052 -0.7817546918 -0.4405673348 0.8967426407 0.0418695577 -0.5380023790 0.4624882266 -0.7047397254 -0.5414166074 0.4479627534 -0.7114755293 0.6864223207 0.4008445468 0.6067520473 -0.2443661350 0.8465897749 -0.4728328934 -0.2513063776 0.8697679584 -0.4246749381 -0.5483779132 0.7175659440 0.4293958317 -0.4007454651 -0.8986319836 0.1785038661 0.9959055492 -0.0688420643 -0.0585910166 0.8274282432 0.2663665033 -0.4943798016 0.4686680023 -0.7083432804 0.5278258242 -0.7394015203 0.3563349802 -0.5712361802 -0.3575823593 0.6002265021 -0.7154460165 0.4383699570 -0.7235338629 0.5332265278 0.4385275579 -0.7233277414 0.5333765644 0.4385004818 -0.7233116920 0.5334205880 0.4384903710 -0.7233106759 0.5334302773 0.4385035431 -0.7233110406 0.5334189548 0.4385415566 -0.7233120721 0.5333863041 -0.4310115704 0.8146419568 -0.3880560634 -0.3960963580 0.8960636369 -0.2004435927 -0.3380524899 0.9242343491 -0.1775144558 0.8798188126 -0.3931494825 0.2671185905 0.8739830489 -0.2739319303 -0.4013912403 0.0100231782 -0.2623803625 0.9649124734 0.6007026995 -0.1438210855 -0.7864297567 0.5252735399 -0.3228558920 -0.7873066628 -0.4300627894 -0.8836202869 0.1850977737 -0.5721248478 0.8133271394 -0.1056982628 0.2510929848 -0.2529617870 0.9343247012 -0.5456123177 -0.0409321661 -0.8370374881 0.6372834366 0.3103375163 0.7053796477 -0.0735019188 0.8253328555 -0.5598420719 -0.9151647019 0.3072574599 0.2608954230 -0.9096666769 0.3889858686 -0.1455902850 -0.9090381871 0.3900583942 -0.1466425023 -0.9134712027 0.3962280529 -0.0925942331 -0.4745484844 0.5623089279 -0.6772092776 -0.5152529767 0.5430715332 -0.6630140872 -0.0715249059 0.2425834864 -0.9674902790 0.4069121555 -0.3090058153 0.8596149742 0.4021561834 -0.3583489800 0.8425297696
        </DataArray>
        <DataArray type="Float32" Name="contact force" NumberOfComponents="3" format="ascii">