<?xml version="1.0"?>
<VTKFile type="UnstructuredGrid" version="0.1" byte_order="LittleEndian">
  <UnstructuredGrid>
    <FieldData>
      <DataArray type="Float32" Name="TIME"  NumberOfTuples="1" format="ascii"> 1.7000000000 </DataArray>
      <DataArray type="Int32"   Name="STEP"  NumberOfTuples="1" format="ascii"> 170000 </DataArray>
    </FieldData>
    <Piece NumberOfPoints="304" NumberOfCells="304">
      <Points>
        <DataArray type="Float32" NumberOfComponents="3" format="ascii">
 4.4822495376 0.1712530726 -4.3628695137 4.5980660674 0.0976931982 -4.3526653440 4.6032364017 0.1107802147 -4.3363378958 4.5490375572 0.0979938768 -4.4679520180 4.6144091898 0.1094221699 -4.3535819535 4.5609536533 0.0931165457 -4.4722899934 4.6594482268 0.0912389915 -4.5031863292 4.6544057230 0.3259444239 -4.3324096080 4.6659955860 0.3213868145 -4.3402953538 4.6673371242 0.4114656056 -4.3477398144 4.7619300960 0.1686690376 -4.5489079584 4.7695260965 0.1756290828 -4.5493158404 4.7274183903 0.4325946059 -4.4412735344 4.8087336156 0.2342283454 -4.6313747427 4.7057284168 0.3752452783 -4.6178566495 4.7156062779 0.3735206817 -4.6276991081 4.7348615383 0.3903526157 -4.6366535577 4.8547777545 0.3813456169 -4.5004530767 4.8657153025 0.3742287558 -4.5095767366 4.8830808759 0.3682873630 -4.6056551387 5.1340938869 0.2530941311 -4.1640992011 5.0815807406 0.3129018841 -4.2517049336 5.0818336450 0.3088508164 -4.2604686874 5.1689803052 0.5121502578 -4.3208286118 5.1699103282 0.5043645098 -4.3416388234 5.1655678290 0.2851956979 -4.3816665872 5.1663317565 0.2990579116 -4.3891410884 5.1232508450 0.4670964758 -4.4470105232 5.1163526515 0.4479955504 -4.4329852203 4.3179879104 0.7405490154 -4.1777658322 4.3280647325 0.7421523041 -4.1758418927 4.3316974264 0.7332799359 -4.1820559709 4.2562211854 0.8261065497 -4.0087012824 4.2537882180 0.8264724589 -3.9961744714 4.2934166423 0.6565966244 -4.0940723725 4.3763076378 0.7619904449 -4.1413662610 4.2791267886 0.7186626142 -3.9635112750 4.2867139689 0.7131112908 -3.9665524353 4.7057322907 0.7171515474 -4.2689318765 4.7970041546 0.7235545567 -4.3388779990 4.7033506636 0.7116832301 -4.3880270391 4.7072360168 0.7157943436 -4.3913372608 4.7020358336 0.7176416381 -4.3944555416 4.5664573896 0.7288771455 -4.3359953377 4.8018544327 0.8313221865 -4.3886188995 4.6399388744 0.8126153101 -4.3052300348 4.6347070775 0.8137911500 -4.3104809434 4.6429301720 0.8180808647 -4.3104394389 4.6382103921 0.8195175157 -4.3160153902 4.6340113047 0.8215348650 -4.3222699911 4.5622653502 0.3842675053 -3.8882025357 4.4004409530 0.5752712438 -3.9798265971 4.3777725695 0.5964443017 -3.9244892440 4.6383015519 0.4599783313 -3.9393067823 4.6459274213 0.4601592739 -3.9490858920 4.6503847200 0.4761007326 -3.9477004731 4.6567890513 0.4752340686 -3.9563129422 4.5471637868 0.3887686007 -4.1025676723 4.5046382186 0.6685935885 -3.8360954327 4.5037035374 0.7109243513 -4.0483969594 4.7246889908 0.4609706300 -4.0794138568 4.7323976836 0.4723256432 -4.0797778401 4.5687995196 0.7979333932 -3.9355153847 4.7114675873 0.7554562160 -3.9767337008 4.7227407613 0.7740033475 -3.9875304443 4.6392547427 0.8505869700 -4.1390202563 5.0282664933 0.2915196049 -4.2509178760 5.0341842809 0.2897511295 -4.2632125279 5.0128934921 0.1421642670 -4.2635638440 4.7162911306 0.0372796211 -4.4590774604 4.7330355708 0.0392757830 -4.4587789558 4.8310927892 0.2130100084 -4.4168590042 4.9120267687 0.3484997545 -4.3909081359 4.9226810742 0.3561991503 -4.3887990063 4.7514840031 0.2729043691 -4.2851183282 4.8230966221 0.1731475615 -4.1768947724 4.7153067007 0.2095116162 -4.2062710594 4.3135771615 0.3815473203 -4.1933351341 4.3084121768 0.3758755716 -4.1832161212 4.3017701805 0.3729928060 -4.0855362378 4.3044699667 0.3979695385 -4.0637198052 4.3101412670 0.4069878287 -4.0578203454 4.3069609832 0.4150649085 -4.0490711686 4.3124748764 0.4220570789 -4.0450360873 4.3093395549 0.4288733442 -4.0374129264 4.3116473634 0.4413280120 -4.0269878172 4.3084730393 0.4482538637 -4.0192673442 4.2693283294 0.5393754386 -4.0905594907 4.2738068597 0.5445650192 -4.0919642110 4.3271702749 0.5783914721 -3.9613693271 4.3226498719 0.5874092120 -3.9694232059 4.3978728032 0.3127238734 -4.0186382405 4.4587858497 0.2346929084 -4.1182981022 4.4547178115 0.2259225939 -4.1156111816 4.4643672450 0.2355455552 -4.1218274325 4.4489716246 0.2197465561 -4.1119015589 4.4606872932 0.2254445901 -4.1193552795 4.4694855444 0.2381944229 -4.1250888508 4.4743671160 0.2427948141 -4.1282288342 4.4792440287 0.2497762203 -4.1313951974 4.4844027176 0.2599799774 -4.1347654637 4.3435096283 0.2345138065 -3.9751380868 4.4911093811 0.2585299271 -4.1389803193 4.5519236519 0.2593170841 -4.0783168863 4.3744776821 0.1605982842 -3.9745751327 4.3307611323 0.0862247241 -4.0050849436 4.3440653113 0.0635160731 -4.0157180983 4.4216725622 -0.0189693626 -4.0074079382 4.5490513954 0.0580818366 -4.0652097811 4.5612356445 0.0778818160 -4.0728351375 4.5668591152 0.0880928129 -4.0763439555 4.5735873496 0.0931795219 -4.0806600260 5.0548014978 0.1611973016 -4.4245318224 5.0096011987 0.0819056564 -4.4328556826 5.0860382448 0.0958733625 -4.2428303698 4.6148386368 0.1751009395 -4.0151341866 4.5660923080 0.2575769999 -4.0148733240 4.9395516325 0.6736363001 -4.1285543963 4.8873607965 0.6064577350 -4.2842128175 4.9834203249 0.6639126757 -4.2664652096 4.9806393195 0.6669154098 -4.2721528878 4.9838624412 0.6731573268 -4.2699682619 4.9073486353 0.7380220570 -4.2802161004 4.6609633023 0.4783138669 -4.3170771283 4.7347433778 0.4835799675 -4.3186691948 4.7391382919 0.5026377296 -4.3128392937 4.7479532329 0.4958515659 -4.3231062378 4.6306037340 0.5420630516 -4.4489145761 4.6338682941 0.5562669143 -4.4488755033 4.6355787031 0.5695640678 -4.4470994852 4.6425370226 0.5545498582 -4.4592625318 4.6442997632 0.5677277433 -4.4574143448 4.6447270092 0.5803112450 -4.4541546624 4.6522444690 0.5776507208 -4.4635953599 4.6518641991 0.5898004002 -4.4592379931 4.8138424432 0.6311127775 -4.3871647897 4.8223003778 0.6341788977 -4.3934129133 4.8307402932 0.6372421728 -4.3996525149 4.8786077544 0.4584832533 -4.4867762616 4.8860205699 0.4691047021 -4.4890315033 4.8394839750 0.6404977805 -4.4061640701 4.8931953123 0.4794469905 -4.4913688745 4.7384728432 0.7280642606 -4.4949947995 4.8489274514 0.6441866217 -4.4132915608 4.7460051658 0.7270811975 -4.5045907995 4.8596579164 0.6486675784 -4.4215421265 4.8101739718 0.7539068590 -4.4905637631 4.9062802377 0.5504546927 -4.5883175718 4.8158232949 0.6269473193 -4.6115949891 4.9144540725 0.5574483324 -4.5831826015 4.8289378653 0.6403049388 -4.6231558597 4.9730997337 0.6678379697 -4.5162339196 4.4755391163 0.7024241567 -4.3673553005 4.4696177162 0.7114521370 -4.3684432089 4.4777940636 0.7123964034 -4.3721659319 4.4720784727 0.7225046628 -4.3739598323 4.4853092105 0.7131475412 -4.3758470482 4.4804733174 0.7231521896 -4.3777872076 4.5642444292 0.6148295370 -4.4633797336 4.4883676378 0.7239234751 -4.3814264106 4.5683606169 0.6185062922 -4.4723280622 4.5690990591 0.6255286127 -4.4661160033 4.5698377590 0.6320833505 -4.4606748983 4.5742263170 0.6375921638 -4.4693622950 4.5753591554 0.6442855078 -4.4647896425 4.7030044317 0.0976793925 -4.1026308999 4.6997827127 0.0004646265 -4.0414087045 4.5262342408 0.0921553217 -3.9698954185 4.6078637165 0.0367021934 -3.9605724530 4.6005088509 0.0396299619 -3.9560070454 4.5298833412 -0.0103826839 -3.9369536327 4.5209567050 -0.0023105257 -3.9460148532 5.1962468877 0.4107430210 -4.3307358369 4.4348948471 0.0316152827 -4.2804042431 4.4486328923 0.1266189673 -4.3071054148 4.4521569898 0.1243991741 -4.3079986656 4.4561068584 0.1275714865 -4.3068058258 4.4815814236 0.1566311229 -4.2413445532 4.2666475244 0.8399581513 -3.9275046214 4.2763627924 0.8487689262 -3.9288260691 4.5733967300 0.4409439241 -4.2876774388 4.5702491033 0.4309590310 -4.2857398932 4.6896012929 0.3486465758 -4.2744440991 4.7834853552 0.5699490350 -4.6533462346 4.7756956910 0.5740626539 -4.6487566274 4.8741578647 0.0562480650 -4.4797256124 4.8508512561 0.0654897036 -4.4359224612 4.8608680328 0.0702388569 -4.4354208417 4.8542947937 0.0716679858 -4.4311446559 4.9457678933 0.1062229654 -4.4920137000 4.9542950733 0.1196261404 -4.4908621166 4.8162085364 0.1766546824 -4.5197840677 4.8210499688 0.1805660716 -4.5201031994 4.7530497054 0.1017341797 -3.9933947531 5.0585917563 0.5900793278 -4.4818422753 5.0242138818 0.5830599821 -4.3915028177 5.0274074544 0.4614352588 -4.4622425298 5.0230884420 0.4583994338 -4.4575167406 5.0225455920 0.4537085870 -4.4620807215 5.0186538698 0.4511176948 -4.4574467378 4.9727093326 0.3686494645 -4.5242515123 4.4144740552 0.8342313223 -4.2542073300 4.9493673915 0.6291220369 -4.3665418991 4.8537563027 0.5748957007 -4.3045124510 4.8461813902 0.5787081590 -4.2984224742 4.3781704585 0.8250374950 -3.9401420939 4.3851944618 0.8241620892 -3.9364696576 4.3310793760 0.2213223426 -4.2160532722 4.4127885157 0.2247003417 -4.3133176608 4.3656023277 0.3639271782 -4.2507439224 4.4652896037 0.0848876113 -3.9251934773 4.5003684836 0.1250904791 -3.9453037337 4.7678328291 -0.0235870979 -4.1120917404 4.7360287632 -0.0013109410 -4.2147231189 4.7364239615 -0.0054299119 -4.2206197298 4.8236300674 -0.0017388493 -4.2384854330 4.7893638377 -0.0021009464 -4.2661451370 4.5894275990 0.8243500948 -3.8604815254 4.4518776325 0.8621063043 -3.9824046393 4.8627051579 0.1189136626 -4.1203889609 4.8650651434 0.1176778393 -4.1256637699 4.7519006502 0.1210175368 -4.1338389854 4.9829269913 0.1571020259 -4.6021414377 4.9863835399 0.3073845601 -4.6152329667 4.9840914012 0.3118638403 -4.6130134012 4.4242771709 0.8181223562 -4.3094553379 4.4158691217 0.8259838599 -4.3062240839 4.5434025105 0.7789834978 -4.3906224411 4.4997504022 0.9010589592 -4.3869901934 4.8154770835 0.7368765423 -4.0065318545 4.8085835357 0.7366764329 -3.9296130972 4.8668613068 0.0864550662 -4.6845764345 4.3987764570 0.0203520087 -4.2081907187 4.3434986466 0.0014072031 -4.2371324132 4.3381762625 0.0088614222 -4.2327649621 4.5287141707 0.7078359871 -3.8098467292 4.6304882957 0.7770604146 -3.8567324343 4.4814408604 0.7512259940 -4.2000164595 4.5406901166 0.8752001203 -4.1659241627 4.5495726488 0.8766654234 -4.1778730960 4.5218212050 0.8529597334 -4.1946940555 4.2585437310 0.1486034848 -4.1369916048 4.3270513978 0.0773778412 -4.2125888991 4.8857996036 0.8810941884 -4.3952706345 4.9766794189 0.8699723227 -4.3437030737 4.8779534945 0.8837479380 -4.3864491822 4.9735402346 0.8485201773 -4.3425623870 5.0171122124 0.6357678139 -4.3122805139 5.0198677984 0.6397351212 -4.3145600301 5.0162843467 0.6420753073 -4.3172867865 5.0191144198 0.6468157013 -4.3201146695 5.0408864948 0.3562431241 -4.4460424334 4.5084049010 -0.0078664418 -3.8506745240 4.8753390007 0.0326845665 -4.3658917540 4.8770185824 0.0274174334 -4.3726643557 4.9720532342 0.0208938084 -4.5287635000 4.9704202932 0.0135530366 -4.5225641127 4.9836635786 0.0066718545 -4.4815270173 4.9818455661 0.0094487521 -4.4719177399 4.4486772962 0.1018480602 -4.3665753437 4.5048909322 0.2758648428 -4.3243179485 4.9003212669 0.8411110238 -4.5083517122 4.9003299051 0.8496957353 -4.5076459601 4.8219414897 0.8752369508 -4.4831497027 4.8823376820 0.0084665923 -4.1663308904 4.3704818293 0.0665688904 -4.1858144609 4.2842281845 0.1337081786 -4.1178120570 4.6968814582 0.4308375456 -3.8667335190 4.5345534337 0.5442314757 -3.7518105357 4.8220326167 0.1057835520 -4.7199079000 4.8296546877 0.1163244259 -4.7117662510 4.8313399743 0.1212921136 -4.7063813189 4.8336163051 0.1252523880 -4.7028293043 4.8365845700 0.1285791629 -4.7006914662 4.8404578942 0.1314949039 -4.6998308635 4.8601790566 0.0162179230 -4.2985463322 4.8494352543 0.0142366860 -4.2919684844 4.8809294529 0.0223833383 -4.3084978461 4.7703568583 0.0287217182 -4.2669920709 4.8838605386 0.2835115302 -4.6797498565 5.2638629895 0.3095196013 -4.2628798791 4.3155541192 0.5723383858 -4.1582815766 4.3069944138 0.5598343019 -4.1606196718 4.4583492611 0.6044191683 -4.1883305068 4.4456273968 0.4772784001 -4.2803163851 4.4919612521 0.6813148402 -4.2382607306 4.4946098600 0.6778928067 -4.2395368095 4.5407853649 0.4512955440 -4.3972797909 4.5277894819 0.4521389833 -4.3944196410 4.5391791351 0.3853912968 -3.8445142038 4.4558824324 0.2604857123 -3.9016685493 4.4987342137 0.2385847259 -3.8472049302 4.4617601707 0.2515443298 -3.9044839540 4.3098687068 0.0106726526 -4.1181448686 4.6648402186 0.7440937627 -3.8974568138 4.7438272392 0.0038646931 -4.0538064668 4.7295635498 -0.0198856899 -3.9943419146 4.7278285280 -0.0219778896 -3.9889121293 4.3594532847 0.3711176655 -3.9999656199 4.3530936605 0.3683021376 -3.9975884451 5.0380040934 0.8547878884 -4.2992851210 4.8627389807 -0.0508503308 -4.1573132323 4.6029108769 0.8696434396 -4.2249346890 4.5961606620 0.8635377306 -4.2243315524
        </DataArray>
      </Points>
      <Cells>
        <DataArray type="Int32" Name="connectivity" format="ascii">
 0 1 2 3 4 5 6 7 8 9 10 11 12 13 14 15 16 17 18 19 20 21 22 23 24 25 26 27 28 29 30 31 32 33 34 35 36 37 38 39 40 41 42 43 44 45 46 47 48 49 50 51 52 53 54 55 56 57 58 59 60 61 62 63 64 65 66 67 68 69 70 71 72 73 74 75 76 77 78 79 80 81 82 83 84 85 86 87 88 89 90 91 92 93 94 95 96 97 98 99 100 101 102 103 104 105 106 107 108 109 110 111 112 113 114 115 116 117 118 119 120 121 122 123 124 125 126 127 128 129 130 131 132 133 134 135 136 137 138 139 140 141 142 143 144 145 146 147 148 149 150 151 152 153 154 155 156 157 158 159 160 161 162 163 164 165 166 167 168 169 170 171 172 173 174 175 176 177 178 179 180 181 182 183 184 185 186 187 188 189 190 191 192 193 194 195 196 197 198 199 200 201 202 203 204 205 206 207 208 209 210 211 212 213 214 215 216 217 218 219 220 221 222 223 224 225 226 227 228 229 230 231 232 233 234 235 236 237 238 239 240 241 242 243 244 245 246 247 248 249 250 251 252 253 254 255 256 257 258 259 260 261 262 263 264 265 266 267 268 269 270 271 272 273 274 275 276 277 278 279 280 281 282 283 284 285 286 287 288 289 290 291 292 293 294 295 296 297 298 299 300 301 302 303
        </DataArray>
        <DataArray type="Int32" Name="offsets" format="ascii">
 1 2 3 4 5 6 7 8 9 10 11 12 13 14 15 16 17 18 19 20 21 22 23 24 25 26 27 28 29 30 31 32 33 34 35 36 37 38 39 40 41 42 43 44 45 46 47 48 49 50 51 52 53 54 55 56 57 58 59 60 61 62 63 64 65 66 67 68 69 70 71 72 73 74 75 76 77 78 79 80 81 82 83 84 85 86 87 88 89 90 91 92 93 94 95 96 97 98 99 100 101 102 103 104 105 106 107 108 109 110 111 112 113 114 115 116 117 118 119 120 121 122 123 124 125 126 127 128 129 130 131 132 133 134 135 136 137 138 139 140 141 142 143 144 145 146 147 148 149 150 151 152 153 154 155 156 157 158 159 160 161 162 163 164 165 166 167 168 169 170 171 172 173 174 175 176 177 178 179 180 181 182 183 184 185 186 187 188 189 190 191 192 193 194 195 196 197 198 199 200 201 202 203 204 205 206 207 208 209 210 211 212 213 214 215 216 217 218 219 220 221 222 223 224 225 226 227 228 229 230 231 232 233 234 235 236 237 238 239 240 241 242 243 244 245 246 247 248 249 250 251 252 253 254 255 256 257 258 259 260 261 262 263 264 265 266 267 268 269 270 271 272 273 274 275 276 277 278 279 280 281 282 283 284 285 286 287 288 289 290 291 292 293 294 295 296 297 298 299 300 301 302 303 304
        </DataArray>
        <DataArray type="UInt8" Name="types" format="ascii">
 1 1 1 1 1 1 1 1 1 1 1 1 1 1 1 1 1 1 1 1 1 1 1 1 1 1 1 1 1 1 1 1 1 1 1 1 1 1 1 1 1 1 1 1 1 1 1 1 1 1 1 1 1 1 1 1 1 1 1 1 1 1 1 1 1 1 1 1 1 1 1 1 1 1 1 1 1 1 1 1 1 1 1 1 1 1 1 1 1 1 1 1 1 1 1 1 1 1 1 1 1 1 1 1 1 1 1 1 1 1 1 1 1 1 1 1 1 1 1 1 1 1 1 1 1 1 1 1 1 1 1 1 1 1 1 1 1 1 1 1 1 1 1 1 1 1 1 1 1 1 1 1 1 1 1 1 1 1 1 1 1 1 1 1 1 1 1 1 1 1 1 1 1 1 1 1 1 1 1 1 1 1 1 1 1 1 1 1 1 1 1 1 1 1 1 1 1 1 1 1 1 1 1 1 1 1 1 1 1 1 1 1 1 1 1 1 1 1 1 1 1 1 1 1 1 1 1 1 1 1 1 1 1 1 1 1 1 1 1 1 1 1 1 1 1 1 1 1 1 1 1 1 1 1 1 1 1 1 1 1 1 1 1 1 1 1 1 1 1 1 1 1 1 1 1 1 1 1 1 1 1 1 1 1 1 1 1 1 1 1 1 1 1 1 1 1 1 1 1 1 1 1 1 1
        </DataArray>
      </Cells>
      <PointData Scalars="overlap">
        <DataArray type="Float32" Name="overlap" format="ascii">
 0.0001328034 0.0000704618 0.0001217529 0.0005996930 0.0000734853 0.0004334467 0.0000536605 0.0000883510 0.0000515856 0.0001357959 0.0000530161 0.0002467531 0.0003200740 0.0000048773 0.0000553866 0.0000267085 0.0003288700 0.0000012657 0.0002207465 0.0000967795 0.0000957686 0.0003473359 0.0002085152 0.0002981086 0.0001598516 0.0002851559 0.0002244529 0.0001222342 0.0004611223 0.0000556048 0.0001099016 0.0000236072 0.0002007092 0.0000000836 0.0001659643 0.0000029986 0.0000867993 0.0000808120 0.0000866907 0.0002487031 0.0002171394 0.0005419683 0.0000361830 0.0001759934 0.0000827959 0.0001179033 0.0001646665 0.0001985601 0.0003652959 0.0001435847 0.0000749634 0.0002178527 0.0000064183 0.0000377269 0.0000131553 0.0000096814 0.0000887749 0.0003241570 0.0001185659 0.0000485261 0.0001254197 0.0000261494 0.0000064180 0.0000321899 0.0000605907 0.0002118730 0.0000197500 0.0000993909 0.0000097663 0.0000237842 0.0000120614 0.0001706476 0.0000616793 0.0000651640 0.0001758902 0.0000711707 0.0001186460 0.0000598846 0.0000344323 0.0000009607 0.0000383464 0.0000460219 0.0000521555 0.0000135471 0.0000419193 0.0000069687 0.0000082562 0.0000998622 0.0000725775 0.0000356027 0.0000506738 0.0000227253 0.0000479039 0.0000352891 0.0000715963 0.0000111343 0.0000332525 0.0000860823 0.0001014844 0.0001144348 0.0000979665 0.0000499274 0.0001170118 0.0000424382 0.0000481117 0.0000233888 0.0000513598 0.0000160795 0.0000030673 0.0000885823 0.0000433621 0.0000153480 0.0000098569 0.0000191097 0.0000895874 0.0000170178 0.0000126483 0.0001906009 0.0000574926 0.0000567778 0.0001919800 0.0000231515 0.0002837634 0.0001897061 0.0002868036 0.0002285383 0.0001444949 0.0002281339 0.0005091473 0.0002664673 0.0001142667 0.0005166227 0.0003475867 0.0000349515 0.0001052302 0.0000188563 0.0000393568 0.0000502949 0.0001909847 0.0003077382 0.0000575086 0.0002333186 0.0002595488 0.0000636234 0.0002842486 0.0000599516 0.0000238916 0.0000062174 0.0000265863 0.0001541134 0.0002807133 0.0001710033 0.0002164778 0.0002185152 0.0001056455 0.0000227632 0.0002640122 0.0002911743 0.0002186274 0.0000827970 0.0001036449 0.0005139830 0.0001823389 0.0001873914 0.0000280359 0.0000258748 0.0000510588 0.0000893553 0.0000027007 0.0000159594 0.0000722163 0.0000025651 0.0000180766 0.0000098724 0.0000005008 0.0000176366 0.0000076947 0.0000087333 0.0000092441 0.0000335855 0.0000258877 0.0000115105 0.0000206605 0.0001132847 0.0000724638 0.0000576721 0.0000205225 0.0000304047 0.0000860354 0.0000326324 0.0000001716 0.0002128496 0.0000362027 0.0001932412 0.0000480976 0.0000259529 0.0000126703 0.0001595635 0.0001257381 0.0001567616 0.0001030190 0.0000614110 0.0000539818 0.0000158741 0.0000315585 0.0000497965 0.0000561747 0.0002167363 0.0000891977 0.0001642894 0.0000131802 0.0000332446 0.0000051538 0.0000231577 0.0000006772 0.0000057640 0.0000041209 0.0000102825 0.0000072634 0.0000525634 0.0000405236 0.0000367189 0.0000104254 0.0000065123 0.0000164385 0.0000599306 0.0000637133 0.0000283419 0.0000211776 0.0000394427 0.0000323892 0.0000074974 0.0002015191 0.0000159171 0.0001457099 0.0000079003 0.0000425256 0.0000953080 0.0000520364 0.0000425561 0.0001261166 0.0000616278 0.0000825620 0.0001360071 0.0000110609 0.0000171662 0.0000578646 0.0000064216 0.0000025689 0.0000187886 0.0000200303 0.0000499353 0.0000009639 0.0000818328 0.0000291284 0.0000297416 0.0000046914 0.0000205344 0.0000453034 0.0000022092 0.0000051396 0.0000472711 0.0000248901 0.0000009371 0.0000089607 0.0000628296 0.0000060271 0.0000490686 0.0000146095 0.0000447532 0.0000755212 0.0000394093 0.0000180411 0.0000155165 0.0000261183 0.0000269415 0.0000113623 0.0000273306 0.0000008156 0.0000415154 0.0000068213 0.0000647536 0.0000182128 0.0000517724 0.0000116059 0.0000117421 0.0000089460 0.0000150886 0.0000195548 0.0000154828 0.0000231186 0.0000266739 0.0000169950 0.0001173735 0.0000153839 0.0000313282 0.0000422670 0.0000016103 0.0000194516 0.0000233119 0.0000069568 0.0000844410 0.0000097759 0.0000566442
        </DataArray>
        <DataArray type="Float32" Name="contact normal" NumberOfComponents="3" format="ascii">