<?xml version="1.0"?>
<VTKFile type="UnstructuredGrid" version="0.1" byte_order="LittleEndian">
  <UnstructuredGrid>
    <FieldData>
      <DataArray type="Float32" Name="TIME"  NumberOfTuples="1" format="ascii"> 0.0000000000 </DataArray>
      <DataArray type="Int32"   Name="STEP"  NumberOfTuples="1" format="ascii"> 0 </DataArray>
    </FieldData>
    <Piece NumberOfPoints="399" NumberOfCells="399">
      <Points>
        <DataArray type="Float32" NumberOfComponents="3" format="ascii">
 0.4248652338 0.2068256925 0.0759432100 0.5299831905 0.1286330523 0.0400908893 0.5050733787 0.1472908878 0.1825919384 0.6403307485 0.1082665743 0.1124598105 0.5396124214 0.3646969113 0.2040010202 0.5528625153 0.3591027105 0.2072270081 0.5678908038 0.4472846485 0.1939273035 0.7522015224 0.1787393881 0.1457378355 0.7585133007 0.1855918971 0.1501548912 0.6781370475 0.4551493396 0.1694662907 0.8496088656 0.2321595996 0.1150671906 0.7816289979 0.3733982261 0.0369727288 0.7953316364 0.3703152564 0.0373492556 0.8168258656 0.3857440335 0.0431750244 0.8042875690 0.3963509359 0.2240359064 0.8177013877 0.3880446633 0.2261943399 0.8970056520 0.3686633370 0.1723159658 0.7489582383 0.3245514387 0.6726921267 0.7715942470 0.2992916749 0.6582666958 0.7860266179 0.3638988497 0.5621544778 0.8677400007 0.6052367045 0.5111384267 0.9118159302 0.5556471675 0.5587205665 0.8933347826 0.6065757548 0.4947008643 0.9262234735 0.5446443503 0.5458342101 0.9417328976 0.3093601268 0.5254695634 0.9349242124 0.3343185468 0.5344060397 0.9466582117 0.4740592727 0.4508205992 0.2426832222 0.7997990128 0.0414069705 0.2550043590 0.8173398776 0.0914574502 0.0745409115 0.9091238950 0.1097907447 0.1543237975 0.7223199552 0.0815084781 0.0388483474 0.8885769889 0.1662308899 0.0554835391 0.8047841817 0.1553464014 0.0622456819 0.7985060786 0.1588806735 0.1716660545 0.7198414787 0.1453822719 0.1846706076 0.8263780874 0.1958310380 0.5696636122 0.7614169685 0.2455279817 0.6836968693 0.7584638991 0.2617673507 0.6518279837 0.7389200831 0.1620811783 0.7064510622 0.8129153688 0.2796414905 0.6573962029 0.7424566154 0.1621264453 0.6559158923 0.7439889775 0.1560631628 0.6050556703 0.8504655851 0.2446685558 0.6094925420 0.8548467262 0.2417820314 0.5207969543 0.7623145986 0.0984627427 0.7326519277 0.8581099060 0.2193666216 0.7273908689 0.8568458858 0.2066720304 0.5647774318 0.8549314029 0.1613297929 0.5655450722 0.8555401139 0.1539491143 0.1730877383 0.4807040532 0.3236718101 0.1676972607 0.4846862788 0.4415940389 0.1372093783 0.6603889875 0.2434476029 0.0843620677 0.6890416445 0.2636714407 0.1610017794 0.6613727839 0.2414233645 0.2576846307 0.4522146947 0.3447881055 0.2908204330 0.4616815428 0.4187233918 0.2909880705 0.5655099038 0.4523302005 0.3086336121 0.4589964565 0.2813336861 0.1182082912 0.7733042125 0.4080898555 0.2713210294 0.7854264419 0.2555513898 0.4240755930 0.5343448316 0.4164837600 0.4308563509 0.5455607995 0.4205683866 0.2460004667 0.8876089600 0.3715553348 0.3711228141 0.8402725243 0.4486942536 0.3884537112 0.8571716150 0.4473818035 0.4440474659 0.9114116226 0.2749317594 0.5616924127 0.7792383993 0.4616585243 0.7554643588 0.3393625251 0.5253692235 0.7491433495 0.3251168291 0.5221879632 0.7310370163 0.1923242359 0.5211102034 0.6605264886 0.0750018299 0.2089067938 0.6490922676 0.1078241379 0.2421730146 0.6082329656 0.1071852922 0.3161808100 0.5368087052 0.0942205765 0.3297721280 0.6497679933 0.8867013164 0.4452707995 0.6558296349 0.9007447377 0.3525089094 0.6572089895 0.9097054092 0.3464138575 0.7437356673 0.9446352391 0.5283425999 0.6975305158 0.9102991903 0.3310051477 0.7118973918 0.2412333824 0.2823346410 0.6923349964 0.1618258577 0.4376725495 0.7639628635 0.3793142062 0.3440308083 0.7707363208 0.3872265107 0.3523746049 0.5690858788 0.3189441840 0.3113901420 0.5335524080 0.2357778694 0.4478725708 0.4819233219 0.2672517270 0.3471253686 0.4709356758 0.3273645886 0.5039602936 0.4582445933 0.3355684698 0.5055520515 0.3861285478 0.4139793519 0.4441346875 0.5795580893 0.5972599424 0.5628814531 0.1272837979 0.2954929484 0.0794087567 0.1210210334 0.2920263846 0.0845424461 0.1781397377 0.3772367598 0.0528341294 0.1491831709 0.4388051527 0.0568122710 0.0950506436 0.4146560288 0.1045549304 0.2077564522 0.4386278577 0.0527659824 0.1964204238 0.4344290028 0.0567133731 0.2718639851 0.5419342920 0.0599528920 0.1116346319 0.4730202449 0.1348038113 0.1123434500 0.4827930698 0.1420341664 0.1047358362 0.4920118414 0.1450392924 0.0995437185 0.5073288012 0.1534463048 0.1196631549 0.6091651289 0.0768636866 0.1243071152 0.6141222161 0.0785444065 0.0731065071 0.6660890732 0.2039464656 0.0764847587 0.6738823439 0.1942229619 0.1368994694 0.3952855553 0.2410311594 0.2422139386 0.3041295049 0.2229850093 0.2365973279 0.2958155319 0.2228491883 0.2487075701 0.3044903642 0.2244125582 0.2293362812 0.2902096822 0.2219688015 0.2433839259 0.2948298201 0.2245380037 0.2197452413 0.2869287158 0.2202327669 0.2548639444 0.3066660071 0.2255153049 0.2368441692 0.2880816709 0.2239876736 0.2496220686 0.2953279130 0.2258882619 0.2609606731 0.3107901069 0.2263366214 0.2673073352 0.3172676085 0.2268952375 0.2743132296 0.3269071285 0.2271861651 0.0603286160 0.3238588391 0.2405528936 0.2818538884 0.3248946407 0.2291700616 0.2734199037 0.3270489564 0.3139753872 0.2819442643 0.3344278952 0.3145364815 0.0744069188 0.2508621137 0.2704874373 0.0724377287 0.1488437720 0.2300766709 0.1130180201 0.0685978758 0.2994121366 0.1289122007 0.0610855255 0.3107427397 0.2422545168 0.1318700317 0.3407272468 0.2508590278 0.1370574236 0.3419972099 0.2667448297 0.1556162425 0.3433602332 0.2741739270 0.1652456879 0.3438921718 0.2824450419 0.1696902078 0.3451598730 0.8679166256 0.1866465981 0.4388069315 0.8336789041 0.1057845028 0.4125788059 0.7587786063 0.1533932571 0.5977283071 0.7548240022 0.1422564951 0.5935152055 0.7470092868 0.1331172055 0.5912819550 0.2973213460 0.2801230060 0.5031618625 0.2898216826 0.2700269314 0.4140877894 0.2535000027 0.3450427908 0.3698647697 0.3102825026 0.3803417156 0.4286210007 0.6312881651 0.7388038877 0.5144364950 0.6934345146 0.6467633435 0.3835480133 0.7179960880 0.8411238964 0.5228713504 0.7601127203 0.7119198011 0.4431580007 0.7150696947 0.7763956024 0.3773372954 0.7224936017 0.7765644976 0.3764738779 0.7217505832 0.7830364196 0.3798920815 0.5481887431 0.5178816387 0.2034166684 0.6016776156 0.5231823032 0.2544422338 0.6024655140 0.5427593809 0.2596858332 0.6200445166 0.5473510404 0.0836205767 0.6262687661 0.5623860904 0.0836989571 0.6399077050 0.5592331875 0.0832590298 0.7413573659 0.6640252632 0.2510475662 0.8187181726 0.4748241984 0.2427192838 0.8265623958 0.4850386409 0.2453618003 0.7524100636 0.6663463836 0.2524264903 0.8342700589 0.4949645275 0.2478057446 0.7588465025 0.7526344946 0.1137503851 0.7644313252 0.6690109037 0.2538326764 0.7782265856 0.6723037188 0.2552961654 0.8026225236 0.7665645805 0.1615344597 0.8794320020 0.6238434458 0.0942666683 0.9217436594 0.5592539835 0.1912949204 0.8981113095 0.6354676118 0.0942531825 0.9265948231 0.6781198895 0.2684895720 0.9125158810 0.7262496052 0.2334574972 0.9396913225 0.6711488540 0.2630045735 0.3658527287 0.5765590135 0.0833471585 0.4803356210 0.7324427711 0.0279609165 0.4430332624 0.6659639697 0.0961074607 0.4495920190 0.6639640567 0.0952670295 0.4523360216 0.6598792792 0.0965935045 0.3894155165 0.1711527493 0.4216740493 0.3343314009 0.0835966504 0.4717571372 0.1711632768 0.1840692885 0.3885513517 0.2163990811 0.1306964872 0.4587593242 0.1403176938 0.0872414982 0.4244184857 0.9285697795 0.4500573293 0.5810559061 0.2542664684 0.1549648116 0.0768240024 0.2905341993 0.1241738565 0.1289609527 0.3212494998 0.0796920476 0.1134337231 0.3626136376 0.1664948301 0.0989913425 0.3618117015 0.1720327899 0.1001077632 0.3650573577 0.1699174373 0.1024755384 0.3680820015 0.1736260787 0.1065979115 0.3291205628 0.2036829852 0.1572354282 0.3370106501 0.2091301856 0.1616359155 0.0617470036 0.1503408167 0.5057991881 0.1851546638 0.1663325220 0.5386185334 0.1499008975 0.2658891168 0.5712991216 0.1483450065 0.2522231622 0.4787904156 0.0408595916 0.9382736444 0.1632802198 0.1579123677 0.9508839429 0.1726202131 0.1685814387 0.9468863435 0.1683300540 0.4623076732 0.4848422761 0.1661080871 0.4577480176 0.4752244324 0.1662387477 0.5258198160 0.3954508723 0.2669791605 0.8807308660 0.5610013932 0.0484159900 0.8724852069 0.5657499197 0.0455653113 0.8788725565 0.5639579912 0.0436099552 0.9528860868 0.5564842290 0.0824626871 0.0848634363 0.9509151805 0.2972593705 0.0909325910 0.9527350792 0.2984104521 0.1709239928 0.9291525059 0.3642663076 0.7712012957 0.0774327707 0.2849989555 0.7320445382 0.0975393440 0.3049635248 0.7245536427 0.0995463723 0.3031240185 0.8351613858 0.1252680095 0.3223784779 0.8416795524 0.1387116755 0.3278999452 0.7707170857 0.1908866287 0.2038471867 0.7747342630 0.1947196264 0.2066776942 0.3426310688 0.1902170240 0.5344599459 0.3550262542 0.1906340271 0.5362037604 0.4140021905 0.2829444235 0.5664161697 0.9549031179 0.6061792202 0.3610204065 0.8663850711 0.6117989648 0.4001128362 0.8999183982 0.4790676546 0.3659225144 0.9022713113 0.4738060839 0.3628365498 0.8960235702 0.4718838977 0.3635570868 0.9027219887 0.3807537301 0.2926236606 0.8058003628 0.0773943447 0.5900181721 0.3432520694 0.9113998552 0.0686960690 0.3482574055 0.9041870718 0.0728550752 0.2973778608 0.8399046347 0.0897858717 0.2988442574 0.8343476497 0.0890977727 0.8006528916 0.6605806555 0.3595351274 0.6844031325 0.6155011625 0.3399598997 0.6751681685 0.6201207107 0.3384223693 0.1505763835 0.9040904332 0.4534404038 0.1568617305 0.9069194211 0.4543829018 0.1183446692 0.9135207414 0.2299883204 0.1206159672 0.9131854691 0.2376249006 0.2538572693 0.3186013645 0.1147669732 0.2556200636 0.3240397162 0.1154071536 0.2607360917 0.3190398962 0.1151265282 0.2621687239 0.3245780805 0.1156877787 0.2673282783 0.3190372917 0.1154437098 0.2631776950 0.3301142474 0.1161665715 0.2685362331 0.3247198818 0.1158622765 0.3468116162 0.2670684890 0.0577854574 0.2798042317 0.4118690396 0.0597690783 0.1971447434 0.4195476278 0.33
[...]
      <PointData Scalars="overlap">
        <DataArray type="Float32" Name="overlap" format="ascii">
 0.0002253169 0.0000175175 0.0002056423 0.0000271229 0.0000864883 0.0000330297 0.0000067696 0.0000516051 0.0002477910 0.0002506513 0.0001089867 0.0000483510 0.0000726476 0.0004920444 0.0000266929 0.0002309447 0.0000929940 0.0000060985 0.0000060015 0.0001283116 0.0000222743 0.0000485076 0.0000315654 0.0000307387 0.0000235455 0.0000097861 0.0001204264 0.0000832647 0.0001926330 0.0001203282 0.0000298431 0.0000288011 0.0000077648 0.0000869556 0.0002828800 0.0000290012 0.0001985352 0.0000834196 0.0000474298 0.0000985859 0.0001044795 0.0001689534 0.0000244378 0.0000128972 0.0001824479 0.0000521805 0.0000013553 0.0000530610 0.0001661405 0.0000599913 0.0000788353 0.0002212902 0.0000635004 0.0000339468 0.0000157485 0.0000085545 0.0000549056 0.0002887942 0.0001530273 0.0000506935 0.0001167693 0.0000162683 0.0000951143 0.0000947480 0.0000267490 0.0003199912 0.0000189928 0.0000904328 0.0000912502 0.0000192963 0.0000291081 0.0000604812 0.0000070641 0.0000864425 0.0000180487 0.0000016345 0.0000080349 0.0000089394 0.0000386296 0.0001853461 0.0000087301 0.0000307391 0.0002614988 0.0001142978 0.0000378507 0.0001249384 0.0000100331 0.0000136198 0.0000040201 0.0000155694 0.0000166634 0.0000397215 0.0000069919 0.0000392657 0.0000274370 0.0001009071 0.0001226640 0.0000460255 0.0000055824 0.0000080635 0.0000274855 0.0000243845 0.0000817032 0.0000439740 0.0000531954 0.0000487353 0.0000603382 0.0000761958 0.0000622063 0.0000973595 0.0000385598 0.0000568852 0.0000139302 0.0001102415 0.0000158190 0.0000253549 0.0001249397 0.0001381566 0.0001231028 0.0000799227 0.0001379495 0.0000154952 0.0000300688 0.0000372078 0.0000322463 0.0000592639 0.0000282976 0.0000085469 0.0000406036 0.0001086607 0.0000464388 0.0000187319 0.0000024336 0.0000394164 0.0000015688 0.0000123767 0.0000048828 0.0000333275 0.0000391451 0.0000602588 0.0000184718 0.0000167214 0.0000083707 0.0000068613 0.0000119854 0.0000224145 0.0000202579 0.0000126376 0.0000104293 0.0000260412 0.0000088055 0.0001698302 0.0000139041 0.0000453704 0.0000111227 0.0000460229 0.0001709218 0.0000241032 0.0001046119 0.0002025923 0.0000361699 0.0000388707 0.0001536913 0.0000026375 0.0000401519 0.0002874364 0.0000075706 0.0000178955 0.0000144273 0.0000429342 0.0000045490 0.0000128181 0.0000078336 0.0000746668 0.0000376764 0.0000589640 0.0000610967 0.0000359916 0.0000598292 0.0000173201 0.0000351459 0.0000002028 0.0000570976 0.0000124809 0.0000176574 0.0000518921 0.0000191968 0.0000531517 0.0000302817 0.0000300506 0.0000205285 0.0000077295 0.0000283037 0.0000114212 0.0000228287 0.0000144565 0.0000044005 0.0000258700 0.0000156922 0.0000056856 0.0000674742 0.0000369688 0.0000019925 0.0000129536 0.0000075771 0.0000005139 0.0000399579 0.0000107315 0.0000494406 0.0000638645 0.0000373151 0.0002480958 0.0000715320 0.0000076602 0.0000103599 0.0000074416 0.0000071282 0.0000117422 0.0000363479 0.0000336041 0.0000537704 0.0000647558 0.0000026788 0.0000081847 0.0000881509 0.0000310067 0.0000607539 0.0000854076 0.0000027340 0.0000074792 0.0000564275 0.0000903370 0.0000005247 0.0000288815 0.0000795431 0.0001167888 0.0003505483 0.0003212053 0.0000394595 0.0000251519 0.0001373408 0.0001621008 0.0000228213 0.0000386543 0.0000069076 0.0000152036 0.0000603009 0.0000174366 0.0000222663 0.0000123224 0.0000312820 0.0000744781 0.0000535260 0.0000057656 0.0000333179 0.0000231363 0.0000207209 0.0000334122 0.0000189484 0.0000229777 0.0000277232 0.0000618912 0.0000030409 0.0000056476 0.0000216344 0.0000017746 0.0000079199 0.0000690060 0.0002009627 0.0001002058 0.0000704452 0.0000618122 0.0000253175 0.0000529118 0.0000843651 0.0000197949 0.0000510996 0.0000226649 0.0001328001 0.0000052242 0.0000218417 0.0000399001 0.0000060314 0.0000130438 0.0000071148 0.0000120476 0.0000693390 0.0000463512 0.0000084339 0.0000061258 0.0000198982 0.0000510143 0.0000429344 0.0000048685 0.0000222836 0.0000263793 0.0000095713 0.0000018163 0.0000133149 0.0000581725 0.0001162131 0.0000070400 0.0000208432 0.0000300509 0.0000082277 0.0000234106 0.0000218352 0.0000726714 0.0000746821 0.0000793572 0.0000092813 0.0000793440 0.0000033164 0.0000341121 0.0000165367 0.0000030838 0.0000093927 0.0000223167 0.0000324188 0.0000314848 0.0000290374 0.0000209632 0.0000060666 0.0000220761 0.0000136214 0.0000218605 0.0000040120 0.0000588339 0.0000080897 0.0000053087 0.0000114658 0.0000608789 0.0000873932 0.0000142703 0.0000077313 0.0000050914 0.0000505154 0.0000601768 0.0000345122 0.0000374859 0.0000593625 0.0000511139 0.0000145029 0.0000060083 0.0000102686 0.0000046543 0.0000061173 0.0000086530 0.0000097835 0.0000055485 0.0000459262 0.0000166765 0.0000076681 0.0000325784 0.0000233695 0.0000007041 0.0000053599 0.0000594581 0.0000460728 0.0000198694 0.0000226308 0.0000418656 0.0000146332 0.0000078781 0.0000069236 0.0000334513 0.0000269788 0.0000106277 0.0000220871 0.0000403626 0.0000195216 0.0000137036 0.0000140953 0.0000065978 0.0000152039 0.0000080068 0.0000100384 0.0000155332 0.0000152018 0.0000045647 0.0000049217 0.0000517533 0.0000115723 0.0000604637 0.0000295437 0.0000313364 0.0000095828 0.0000183737 0.0000045027 0.0000029487 0.0000040807 0.0000649226 0.0000059286 0.0000313054 0.0000111611 0.0000235873 0.0000133004 0.0000245056 0.0001355585
        </DataArray>
        <DataArray type="Float32" Name="contact normal" NumberOfComponents="3" format="ascii">
 0.9747561435 -0.1893105606 -0.1183721774 0.1555711602 0.9312579510 0.3294787440 -0.0006375267 0.6164432881 -0.7873990514 -0.2103073135 0.7157958936 -0.6658881833 0.1103658978 -0.0480324978 -0.9927296952 0.2338442410 -0.1107131217 -0.9659500379 0.5992033181 -0.7720086603 -0.2120330444 -0.3785341369 0.6351395042 -0.6732827915 -0.3288767051 0.6782704384 -0.6571067837 -0.1641724555 -0.9501207523 -0.2651753399 -0.8558115206 0.4668476255 0.2228002150 -0.1400040548 -0.4491071897 0.8824407044 -0.1480002277 -0.4748830555 0.8675148507 -0.1169582919 -0.3830536965 0.9162917786 -0.0083255425 0.0626789797 -0.9979990134 0.0267973323 -0.0943973777 -0.9951738733 -0.8319722416 -0.0603931768 0.5515204923 -0.4684047637 0.3948184137 -0.7903893962 -0.3784753330 -0.4904673181 -0.7849829503 0.4266447499 -0.1497011528 0.8919438448 0.4063554799 -0.1798516511 0.8958396104 -0.6620817969 -0.1481335205 -0.7346455978 0.5876655929 -0.7239335142 0.3613439053 -0.6340965725 -0.2069764982 -0.7450384325 -0.0676094553 -0.3232816697 -0.9438844863 -0.7624920108 0.1937142075 -0.6173173732 0.3124741404 -0.0294312086 0.9494702289 -0.7342391595 -0.5295568196 0.4248086999 -0.7988583585 -0.6010875576 0.0227831331 -0.0013694807 -0.9554470277 0.2951594513 0.3770216881 0.7929146554 0.4786867409 0.3335665627 -0.6196527763 -0.7104673006 0.7209802309 0.5217084915 -0.4560786737 0.7537176815 0.4852866564 -0.4431777495 0.2852018864 0.6836221107 -0.6718040591 -0.4732837070 -0.4351857721 -0.7659085300 0.2186668016 -0.1884401102 -0.9574315405 -0.6235800587 0.7261397503 -0.2896014043 -0.5201689057 0.6631045796 0.5382533104 -0.1223168975 -0.0632315242 -0.9904748109 -0.3277448662 0.7301528086 0.5995499802 -0.7229386509 0.6861783675 0.0807400461 0.4062276249 -0.7683017532 -0.4946630497 0.4403018400 -0.7260580450 -0.5281798984 0.1714170478 0.2531703546 0.9521139466 -0.4363227573 -0.6609508637 0.6105459911 -0.9456347185 -0.3248602828 -0.0155169547 0.6139410605 -0.7892913592 0.0097736680 0.5989319724 -0.8007997447 0.0005112565 0.5472194495 0.8316357248 0.0945139954 0.4998106547 0.7782009537 -0.3802533172 0.0644268662 -0.3623482847 0.9298133681 0.7572579997 -0.0105290538 0.6530309800 0.1054426582 0.2945897319 0.9497887848 -0.1809034849 0.8143293246 -0.5514904172 -0.1033736269 0.6607660986 -0.7434393426 -0.0957191304 0.2005488417 -0.9749964155 -0.2508229511 0.5934649153 0.7647792109 0.4792854094 -0.4879614299 -0.7295060927 0.2611651454 -0.8734879207 0.4108669119 -0.4050282682 0.2950868531 -0.8653761327 -0.5610681657 0.6174400400 -0.5513350256 0.6796787942 -0.6364907706 -0.3645767899 0.1152707003 -0.2602858640 -0.9586260661 0.2785775120 -0.2555922107 -0.9257792348 -0.1151304240 -0.6947379791 0.7099888209 -0.1319846327 -0.1364317948 -0.9818179170 0.1889918998 -0.3259893341 0.9262899200 0.1771374274 -0.3355339846 0.9252239064 -0.3538974502 0.6917213740 -0.6295062633 -0.5815554616 -0.3308928835 0.7431710064 -0.6850122220 -0.6446811778 0.3393293897 -0.3519597647 0.0409980360 -0.9351168296 0.2481193540 0.1400651970 -0.9585502213 0.6234850523 0.3239603069 -0.7115589288 0.9444722671 -0.0566730209 0.3236669669 0.9482910746 0.0855581851 0.3056531283 -0.4734710810 0.6020978138 -0.6428867381 -0.5584084705 0.4656546588 0.6865462249 -0.4312449759 0.6832494358 0.5892350798 0.1343164025 0.8425420713 -0.5216147641 -0.6365656442 -0.7534978853 0.1643931792 0.0926932071 -0.3335341382 0.9381699995 0.0489978754 -0.2190347445 0.9744860127 0.3163062829 0.5396141104 -0.7802351871 0.7737777269 0.4542860081 0.4414660261 0.3336498774 0.5760569533 -0.7462145441 0.2731725927 0.6214754838 -0.7342649097 0.8864798255 0.4479935736 -0.1159968836 -0.3029237775 -0.8435894005 -0.4433893418 -0.2974525236 0.9482576674 0.1110377974 -0.3437131091 0.8246687786 0.4492022976 -0.8803523599 -0.1147581603 -0.4602285161 -0.2751925073 -0.8528871393 -0.4436807540 -0.0722255329 -0.8079354480 -0.5848279954 -0.2014295387 0.9574089059 0.2068678995 -0.5934931332 0.7299779377 0.3389662393 -0.3922027862 -0.5327724322 0.7498869981 0.3396597141 0.5385661048 -0.7710887299 0.3862866035 0.5406392677 -0.7473231177 0.3396449425 0.5385652230 -0.7710958524 0.3396409657 0.5385649855 -0.7710977700 0.1126234089 -0.4601016999 0.8806942679 0.1108304758 -0.4528052349 0.8846943116 -0.0838081857 -0.9413547271 -0.3268447122 0.7067002082 -0.6148235577 -0.3500954279 0.4599585280 -0.3548456119 -0.8139550013 -0.2235058657 0.1352023208 0.9652799907 -0.2231788652 0.1347967684 0.9654123603 -0.2230393213 0.1346241005 0.9654687011 -0.2232258724 0.1348550600 0.9653933513 -0.2225745557 0.1340473994 0.9656561820 -0.2236665570 0.1354016221 0.9652148321 -0.2227675641 0.1342870414 0.9655783774 -0.2224645840 0.1339110422 0.9657004409 -0.1802068605 0.0818504961 0.9802173145 -0.2226731112 0.1341809390 0.9656149135 -0.2226578685 0.1344140896 0.9655860014 -0.2230711721 0.1349934631 0.9654097664 0.1669224683 -0.3145202174 -0.9344591604 -0.2215170613 0.1354732707 0.9657003596 0.2534592927 -0.2169792900 -0.9426973929 0.2505244102 -0.2101579642 -0.9450244177 0.4823453486 -0.3851675523 -0.7867584898 0.7374706752 0.4353331677 0.5163545645 0.4636775521 0.3371315265 -0.8193567364 0.8230553121 -0.5670212742 -0.0326623321 0.2197736281 -0.1326029023 -0.9664967784 0.2253285921 -0.1300535662 -0.9655636155 0.2248753092 -0.1264202720 -0.9661516497 0.2037532214 -0.0979193681 -0.9741131465 0.2245801150 -0.1254476312 -0.9663470721 0.1756549811 -0.7374293066 0.6521835213 0.1958805020 0.1959951978 0.9608416682 -0.0155782555 0.4234320041 -0.9057939367 -0.0707334024 0.3607699470 -0.9299687259 -0.1004542926 0.3256068929 -0.9401537568 -0.0743051330 0.1549387153 -0.9851257492 -0.3376762778 0.8585540677 0.3858233328 0.1560715325 -0.5231909684 0.8378024155 -0.3066320532 -0.9367103234 -0.1689690917 0.9258873922 0.1042656118 -0.3631270014 0.5340553127 0.5979768527 0.5976693120 -0.6750401239 -0.6277275350 -0.3876583198 -0.9195452913 0.3290250903 -0.2148928737 0.0689903666 -0.6885787176 0.7218723426 0.0714557140 -0.6715884327 0.7374707167 0.0633670066 -0.3692010373 0.9271867215 0.4348808821 0.8794768027 -0.1933886550 -0.3197014327 -0.5167987365 -0.7941725630 0.2726844841 0.5234836314 -0.8072224352 -0.0187499803 0.0079276450 0.9997927739 -0.0187598834 0.0079579114 0.9997923477 0.0753902479 -0.0381782484 0.9964229684 0.2195190698 -0.5921837714 -0.7753255825 -0.1204670578 0.3287104214 -0.9367161506 -0.1204802425 0.3287212883 -0.9367106414 0.2194905203 -0.5919958143 -0.7754771869 -0.1204919120 0.3287309058 -0.9367057653 0.1357934920 -0.0261347060 0.9903923993 0.2192801570 -0.5917297244 -0.7757397412 0.2181298339 -0.5917907610 -0.7760174423 -0.3180725799 -0.8153299482 0.4838046191 -0.2059587564 0.1752067311 0.9627479380 -0.8647628526 0.4792099298 -0.1501434380 -0.0545663622 0.3320563509 0.9416799307 -0.6879676531 0.4288339189 -0.5854929361 -0.0387109591 -0.7615604318 -0.6469367592 0.1347051661 -0.2781028722 -0.9510590469 0.6640553890 0.3246293774 -0.6735326330 -0.2386434533 -0.2963078726 0.9247977870 -0.1923055061 -0.3520408847 -0.9160162705 -0.1771667173 -0.3510669440 -0.9194367597 -0.1801703241 -0.3565749024 -0.9167295093 -0.8774163616 0.4309647047 0.2107366878 -0.5001474597 0.4190881571 -0.7577714927 0.5889338006 -0.5446834323 -0.5970568961 0.2175327926 -0.1596516783 -0.9629074856 0.9732601372 0.2297017399 0.0013475696 -0.6193199994 0.5275379735 -0.5815035897 0.9097936106 -0.4077799914 0.0774019682 0.6530877225 0.0527850927 -0.7554403754 0.1090798977 0.9771208508 0.1825826357 -0.6847306917 -0.2364572946 0.6893706025 -0.6894301894 -0.2314271546 0.6863872712 -0.6822145357 -0.2397826022 0.6907153039 -0.6643657289 -0.2351705845 0.7094455402 0.4877477080 -0.4803059266 -0.7289776335 0.7528399135 -0.6492569517 -0.1081548675 0.0332295193 0.4261961084 0.9040202853 -0.6546360876 0.4065005885 0.6373451689 -0.0727338735 -0.4846294658 -0.8716903490 -0.5033515195 -0.6987138482 0.5083662126 0.3390145156 0.2884260190 -0.8954772972 -0.2373867343 0.0128334017 -0.9713304495 -0.2615758561 -0.0587916573 -0.9633906853 0.7522835096 0.2694544348 0.6012186198 0.1439987086 -0.6094714359 0.7796210238 -0.4401296338 0.8365768869 0.3262284749 0.2696946619 0.7976524513 0.5394583915 0.2716270106 0.8386184534 0.4721629557 0.2090921412 0.6355629477 -0.7431959473 -0.3845829410 0.7536677513 -0.5329923847 -0.2919736950 0.6684407085 0.6840602171 -0.2518863089 0.6666800362 0.7014919933 -0.8247789476 0.4462221046 0.3473118497 -0.1772991392 0.9573737093 0.2280363916 0.3002250824 0.5922460195 -0.7477362852 0.2806539278 0.5827383710 -0.7626594022 -0.2984381169 0.4463303159 -0.8436373270 -0.3000401559 0.4872091380 -0.8201238691 -0.1923666876 -0.5414370964 0.8184381028 -0.1957704406 -0.5312648103 0.8242764317 -0.4403369395 0.6284751187 -0.6411882757 0.0843772680 0.9896447656 0.1161193976 -0.6559035794 -0.6631176487 0.3606459184 -0.6477021090 -0.7391633369 -0.1847147512 0.6216546408 -0.6939957833 -0.3632015424 -0.4376966633 0.6554045503 -0.6155213290 -0.1216530668 0.3523899294 -0.9279126408 -0.2329510590 0.2568631657 -0.9379526205 -0.4786190164 0.7628192798 -0.4347764753 -0.1737052774 0.6567062007 0.7338688184 -0.7734226094 -0.6004257908 -0.2032396049 -0.7640757133 -0.6230912549 -0.1671693523 0.2986764109 0.2188549760 -0.9289213643 0.2974137015 0.2166321212 -0.9298470919 -0.2439368491 0.3579370326 -0.9013189748 0.3978104284 0.4542197782 -0.7971394208 0.3423441679 0.4963769273 -0.7977533558 -0.3679627374 0.7958013434 0.4809403766 -0.3649441726 0.8040808217 0.4693290776 -0.8854929457 0.3731738393 0.2768456768 -0.8869885846 0.3678066386 0.2792302408 0.0322017929 0.0956254343 -0.9948963870 0.0299018560 0.0983270361 -0.9947048170 0.0681916746 0.0531660493 -0.9962546194 0.0336684467 0.0939409206 -0.9950083111 0.0706222543 0.0502749490 -0.9962353772 0.0314980638 0.0964982177 -0.9948346425 0.0697306947 0.0513382368 -0.9962439539 -0.9735286326 0.2172804284 0.0709310715 -0.4238754473 -0.7489771611 -0.5092767590 0.4890280212 -0.6031937475 0.6300864207 0.0011442666 0.0684544177 -0.9976535889 0.1759360062 -0.2961182072 -0.9388080363 0.5084298154 -0.3526618307 -0.7855754298 0.1803344289 -0.9835925156 -0.0050256250 0.9711371850 -0.0971638069 -0.2178342547 -0.2651212288 -0.9614119945 0.0734691158 -0.2908604413 -0.5680926469 0.7698512507 0.6003705505 -0.1235687783 -0.7901176869 0.4877572066 0.4212442232 0.7646216135 -0.0680092663 -0.9155789178 -0.3963457896 -0.1219597665 0.3803751683 -0.9167554454 0.3198537012 -0.2090730771 0.9241114967 -0.6040748897 -0.0347641048 -0.7961689423 -0.2391616978 -0.6359411695 0.7337441729 -0.2315509339 -0.6370171591 0.7352505042 0.8045643939 -0.5925166319 0.0400022120 0.5654655349 -0.0073253130 0.8247393944 0.0996623229 0.7560919735 0.6468325510 -0.1534729231 0.6421882259 -0.7510261942 0.7465937438 0.1815142506 -0.6400393415 0.1414894412 -0.5278149278 -0.8374915761 -0.6001571806 -0.5560273043 -0.5750173871 -0.2655263911 0.5367721376 -0.8008566713 -0.8479719071 -0.3158351461 -0.4256663075 -0.7710805482 -0.1248551800 -0.6243764667 0.3590319229 0.2544337217 -0.8979752556 0.3518007180 0.2536802885 -0.9010452630 0.3589468134 0.2544588356 -0.8980021638 0.4646789144 -0.0593361430 0.8834889522 -0.0937047955 -0.1858329528 -0.9781030237 -0.0848849374 -0.1981132388 -0.9764966421 -0.1139215903 -0.6161857783 -0.7793182649 0.0885966059 0.1653919477 0.9822403703 0.7157453325 -0.2994765917 -0.6308901568 0.8781439118 0.0218801059 0.4778959417 0.4081418466 0.9091583505 -0.0827727412 0.9198167533 -0.1472112775 -0.3636839014 0.4277958650 0.5480232567 -0.7187914913 0.4394609308 0.5374380099 -0.7197461190 -0.0485476894 -0.6506536363 0.7578211975 -0.0481459617 -0.6506583787 0.7578427546 -0.0497884869 -0.6508238344 0.7575945111 -0.0495905837 -0.6508273554 0.7576044664 -0.0496828064 -0.6508522431 0.7575770432 0.3639490124 -0.0156217624 -0.9312878593 0.9432777423 0.2503003810 -0.2181211133 -0.4285673515 0.5269222850 0.7339502236 -0.4289583765 0.5264966579 0.7340272342 -0.4345217843 0.5250931387 0.7317568002 -0.7262207325 0.3025978762 0.6172827335 -0.0362767042 0.2405712738 -0.9699533303 0.0041148450 0.2892708499 -0.9572384465 0.0163382912 0.3096403229 -0.9507133799 0.2013725059 0.3973491792 -0.8953003650 0.1078229404 0.8494468945 -0.5165405956 -0.3692984579 -0.1432377077 -0.9182056458 -0.2699966613 0.0784212989 -0.9596623900 -0.3530757381 -0.2887007110 0.8899378757 -0.3215939501 -0.9253112450 -0.2009388741 0.2932617078 -0.5837298768 -0.7571373730 -0.0298859133 -0.6451723335 -0.7634523510 0.2668480827 0.3720002844 -0.8890488677 0.3191520873 0.1144566229 -0.9407665101 -0.3964103196 0.0135434649 -0.9179735470 -0.3971596818 0.0123358105 -0.9176666142 -0.3732025117 0.0502642274 -0.9263872801 -0.3734200269 0.0499728973 -0.9263153853 0.1842373920 -0.3894895328 0.9024159170 -0.2693479810 0.0358333857 -0.9623760354 -0.2119662419 0.0192433401 -0.9770875120 -0.0860994724 -0.1622355708 0.9829885556 0.6305972953 -0.6961002896 -0.3432075726 0.6343277086 -0.6934438358 -0.3417074840 -0.2452337821 0.8945660736 -0.3736468012 -0.4035216300 0.9128098252 0.0628372272 -0.5503013781 -0.7400321451 0.3866792178 0.1735311345 0.3615622808 -0.9160565826 0.1744387163 0.3463884361 -0.9217299960 0.3688405873 -0.7351879613 -0.5687312922 -0.4895640115 -0.5444993959 -0.6810634968 0.0874870847 0.4826734727 0.8714197202 0.0729857940 0.4577581920 0.8860759062 0.2545775274 0.7718852369 -0.5825662740 0.2177954254 0.8018488433 -0.5564203313 -0.1614218666 -0.9838733545 0.0770467603 -0.0928358749 0.9011147078 0.4235254227 -0.4452327535 -0.8639920608 -0.2351287182 0.7007693839 -0.1018075445 0.7060860390 0.7781032088 -0.0149209247 0.6279592045 -0.1273928363 -0.6337173522 0.7630028721 -0.1228803497 -0.6298740912 0.7669152815 -0.1273616694 -0.6337424671 0.7629872152 -0.1228502254 -0.6299735363 0.7668384222 -0.1229073309 -0.6300215087 0.7667898581 -0.0930061195 -0.6040540001 0.7914977111 -0.1220053506 -0.6310542954 0.7660843104 -0.0935483325 -0.6037204641 0.7916882661 -0.0934269740 -0.6036250533 0.7917753441 -0.0310404046 0.6016996743 0.7981190357 0.5127644884 0.8091969284 -0.2868325479 0.9208300152 0.2509976249 0.2984497872 -0.0789518565 0.2649969601 -0.9610115585 -0.0745182175 0.2682608509 -0.9604598644 -0.0701947861 0.2713703170 -0.9599118934 0.3275274755 0.4936626024 -0.8056196297 0.6858937084 0.7189466131 0.1125414955 -0.1523939163 -0.6449717984 0.7488574454 -0.1524420526 -0.6449497758 0.7488666152 -0.1524555152 -0.6449474324 0.7488658927 -0.1524074124 -0.6449529504 0.7488709318 -0.1524380480 -0.6449494441 0.7488677160 -0.1524580174 -0.6449471227 0.7488656501 -0.1524547665 -0.6449474971 0.7488659895 -0.1523882560 -0.6449551563 0.7488729304 -0.1524032878 -0.6449534253 0.7488713622 0.0626320654 0.755249218