<?xml version="1.0"?>
<VTKFile type="UnstructuredGrid" version="0.1" byte_order="LittleEndian">
  <UnstructuredGrid>
    <FieldData>
      <DataArray type="Float32" Name="TIME"  NumberOfTuples="1" format="ascii"> 0.5500000000 </DataArray>
      <DataArray type="Int32"   Name="STEP"  NumberOfTuples="1" format="ascii"> 55000 </DataArray>
    </FieldData>
    <Piece NumberOfPoints="233" NumberOfCells="233">
      <Points>
        <DataArray type="Float32" NumberOfComponents="3" format="ascii">
 0.6569487493 0.2244101855 -0.4995375706 0.6853089949 0.1537499666 -0.5950349650 0.7705135389 0.1525108285 -0.4689287592 0.8045257779 0.1091959098 -0.6177922699 0.8064727773 0.1070746513 -0.6288826499 0.8462232172 0.3599436019 -0.4820103319 0.8571038588 0.3534784423 -0.4895650158 0.8687277720 0.4419533013 -0.5040205800 0.9319750521 0.1750575894 -0.6860541933 0.9403160587 0.1810379337 -0.6870368802 0.9295678166 0.4486512585 -0.5991873781 0.9361231485 0.4485017742 -0.6132361368 0.9849096130 0.2282174175 -0.7735561497 0.8990696296 0.3808413895 -0.7706577473 0.9085460086 0.3772346917 -0.7803846981 0.9294810736 0.3909886935 -0.7907245535 1.0593335574 0.3695918668 -0.6632939492 1.0745822255 0.3543006292 -0.7587222386 1.3162583673 0.2452341143 -0.3105485673 1.2711919669 0.3140551312 -0.4034928876 1.2699840421 0.3037389236 -0.4024064557 1.2695448447 0.2990496977 -0.4108524070 1.3791009908 0.4854367582 -0.4873827824 1.3773102261 0.4677856937 -0.4896675790 1.3787438967 0.4759890500 -0.5075215784 1.3484733422 0.2563626984 -0.5301047053 1.3507501501 0.2694007504 -0.5386422360 1.3267051900 0.4363193419 -0.6094525800 1.3178211860 0.4193077524 -0.5939341795 0.5131816374 0.9263035989 -0.1962550054 0.5286217398 0.7478051712 -0.2690143690 0.6228243253 0.8387125031 -0.3244273291 0.6281320833 0.8300575450 -0.3289820073 0.5237148318 0.8205089062 -0.1433480435 0.5305367165 0.8138718655 -0.1459997984 0.9496593537 0.7418632630 -0.4510362423 0.9431252049 0.7462248538 -0.4494948179 0.9469117061 0.7530746523 -0.4491634762 1.0336545239 0.7366819269 -0.5200344791 0.9386658505 0.7320042359 -0.5678017396 0.9430951031 0.7353438521 -0.5714434235 0.8053431468 0.7688660550 -0.5167139555 1.0502636525 0.8390744022 -0.5779624820 0.8883289294 0.8456245396 -0.4927781684 0.8832018160 0.8469959216 -0.4980846299 0.8918664938 0.8502895759 -0.4984069749 0.8872737498 0.8518348573 -0.5040595161 0.8832570690 0.8538428865 -0.5104357639 0.6275286389 0.6634881416 -0.1488708161 0.8510074679 0.5248228933 -0.1006123361 0.8584721860 0.5233632157 -0.1104086982 0.8647438642 0.5387457900 -0.1103020391 0.8708895883 0.5364795915 -0.1188488159 0.7500520901 0.4523424106 -0.2573826794 0.7437494507 0.7548654327 -0.0133291969 0.8860480621 0.5446545305 -0.1329900364 0.7448102618 0.7805398954 -0.2282932892 0.9350516231 0.5049828132 -0.2407529787 0.8943262529 0.8961290870 -0.3301385489 1.2166143596 0.2668296536 -0.4225710329 1.1823605804 0.1413267357 -0.4042625002 0.9016840150 0.0734199787 -0.4118250505 1.0076884157 0.2211848993 -0.5582160158 1.1040323191 0.3479644068 -0.5432060250 1.1155521638 0.3545392309 -0.5417635747 0.9372718448 0.2998960119 -0.4311842294 0.9983402061 0.2011410469 -0.3158229348 0.8950345526 0.2473604244 -0.3474609882 1.1545871736 0.5425426708 -0.2449098143 0.5159393114 0.4653333435 -0.3462337374 0.5102882751 0.4610872122 -0.3356738486 0.5105643948 0.4925755427 -0.2182481103 0.5173191520 0.5012998929 -0.2130953178 0.5152142709 0.5103382478 -0.2049852151 0.5193317146 0.5246298705 -0.1944476035 0.4916198532 0.6346423999 -0.2558611142 0.4966467332 0.6391542174 -0.2576876740 0.5553545397 0.6764651106 -0.1303632831 0.5517913023 0.6853115958 -0.1390572927 0.5940849343 0.4007628626 -0.1670296092 0.6442498225 0.3087888855 -0.2605995077 0.6392360640 0.3007808354 -0.2572201230 0.6498444470 0.3087161635 -0.2642092032 0.6328676633 0.2956146990 -0.2530156233 0.6450601880 0.2993289442 -0.2609420875 0.6551893677 0.3104964253 -0.2676895417 0.6504354257 0.2994123593 -0.2644177655 0.6605253242 0.3142460179 -0.2711996559 0.6661302537 0.3203520548 -0.2749213799 0.6723830865 0.3296009225 -0.2790984644 0.5316772140 0.3329435818 -0.1173272994 0.6788213195 0.3270649367 -0.2832173060 0.7401480790 0.3254572610 -0.2230731364 0.5539393680 0.2562033630 -0.1111551699 0.5797011499 0.0703885215 -0.1301404802 0.7285906433 0.1451215122 -0.2035382543 1.2496085883 0.0891849747 -0.3766000305 1.2368313591 0.0862257703 -0.3668260794 1.1719550173 0.6867398920 -0.3071759558 1.1729955323 0.6976472500 -0.3052069383 1.2433561937 0.8010476471 -0.3449047555 1.2129252581 0.6617241866 -0.4440534079 1.2104669727 0.6646144198 -0.4499444305 1.2144418052 0.6705639490 -0.4482351691 1.1461445943 0.7432544920 -0.4631459044 0.8701324585 0.5112667059 -0.4787213600 0.9440740666 0.5078401984 -0.4809265384 0.9506584711 0.5266331287 -0.4766557191 0.9585040826 0.5180908896 -0.4863856278 0.8458160486 0.5677577358 -0.6150862055 0.8505238389 0.5814946768 -0.6163410400 1.0819740725 0.4531739477 -0.6469881595 1.0905363190 0.4626550962 -0.6500937123 1.0652053476 0.6442121043 -0.5807592684 1.0988289425 0.4718811575 -0.6532586490 1.1070198370 0.4809333958 -0.6566198122 1.0749211304 0.6462051251 -0.5881901623 0.9812929146 0.7328371897 -0.6852342455 0.9889683037 0.7305620879 -0.6948235409 1.0859925535 0.6487443317 -0.5968080243 1.1189217977 0.5331319365 -0.7554957425 1.0376674360 0.6176035223 -0.7844543211 1.1279113099 0.5395031628 -0.7509474642 1.0521048906 0.6284039105 -0.7970604127 1.1997177872 0.6471877863 -0.6930241963 1.2042708981 0.6404111149 -0.7066859113 0.8576009033 0.0548120858 -0.1666643111 0.6967577338 0.1712337486 -0.1018149850 0.7646465027 0.1116791443 -0.0841921423 0.7607896155 0.1025568999 -0.0818820587 0.6889927296 0.0718112013 -0.0609783357 0.5779105415 0.1061502999 -0.4142788054 0.5829462011 0.1035533903 -0.4092904536 0.5929168325 0.1368114951 -0.3738509737 0.6203022615 0.1884724736 -0.4403067011 0.6235204446 0.1857853710 -0.4410607598 0.6481514526 0.2147023525 -0.3750656259 0.7797529827 0.4865109958 -0.4457538451 0.8847867526 0.3827293898 -0.4260764830 0.8828544877 0.3791666218 -0.4217700638 0.9982751650 0.5619160909 -0.8216446013 0.9910745774 0.5672293508 -0.8173356015 1.0313537075 0.0559949774 -0.6088348042 1.0203703594 0.0747715436 -0.5656993013 1.0140662870 0.0772813079 -0.5615168564 1.1081093490 0.0961433399 -0.6252817990 1.1181437244 0.1085129465 -0.6252137779 0.9872684991 0.1789198123 -0.6578786130 0.9925266372 0.1822027239 -0.6585221618 1.2761745079 0.5631456602 -0.6532828463 1.2424296598 0.5671154768 -0.5625424930 1.2306290421 0.4408833399 -0.6235825962 1.2260606731 0.4387337494 -0.6186108134 1.2249090216 0.4338090559 -0.6227990241 1.2208050722 0.4320505519 -0.6179599133 0.6775851648 0.9216349527 -0.4104906000 1.1737959571 0.6234818693 -0.5411605948 1.0735331362 0.5855461694 -0.4745315618 1.0665299258 0.5906717828 -0.4687270452 0.6346731701 0.9163698718 -0.1286586611 0.6415967947 0.9149644025 -0.1249602585 0.5146880454 0.3028185481 -0.3563565897 0.5953549557 0.2892792392 -0.4535695346 0.6359854105 0.1745155214 -0.0563622408 0.6393931171 0.1799313995 -0.0592113203 0.6752202269 0.2086713376 -0.0797170888 0.8455308388 0.8973872438 -0.0501241234 1.0296809371 0.2151461217 -0.2308833646 1.0279025941 0.1515925773 -0.2461070218 1.0230306551 0.1488804044 -0.2427100978 1.0181491837 0.1465477091 -0.2391644199 1.0248173623 0.1464536361 -0.2469122013 1.0197817647 0.1440003662 -0.2432492592 0.9183802431 0.1646117440 -0.2602266067 0.9176299991 0.1571306254 -0.2612793248 0.9219846093 0.1609563025 -0.2687081359 0.9724264090 0.9082490762 -0.3932198635 0.9490367018 0.9041946707 -0.4669990085 0.7408193515 0.9183384661 -0.4499530378 0.7623450253 0.9203096646 -0.6359748917 1.0579573756 0.7731886433 -0.1898362207 0.7252772580 0.8113650930 -0.3824442708 0.7988953680 0.9298635793 -0.3583578016 0.8077308838 0.9293655701 -0.3704240724 0.7771995228 0.9078299418 -0.3852416749 0.4351755305 0.2453419283 -0.2716071809 0.4939763812 0.1610079732 -0.3416811119 1.1391938886 0.8779468874 -0.5889885872 1.1318467106 0.8821786971 -0.5803484392 1.2424860035 0.6262776429 -0.4877108196 1.2423308488 0.6322400027 -0.4931842958 0.6629506116 0.2093189039 -0.0552996963 1.0314397198 0.0413799098 -0.4934359336 1.0324076495 0.0354456814 -0.4997841914 1.1760824015 0.1592196083 -0.6057360300 1.1344476470 -0.0059402151 -0.6071698476 1.1330956486 -0.0022293433 -0.5978038299 0.6088702920 0.1604632314 -0.5056486206 0.6921936136 0.3283143217 -0.4692535537 1.1489307243 0.8365179001 -0.6979708763 0.4592293594 0.2290703909 -0.2514990230 0.7727015037 0.5510812942 -0.6145474591 0.9821698093 0.0928108883 -0.8519586629 0.9845037793 0.1011062720 -0.8430971228 0.9910609495 0.1029883734 -0.8446882540 0.9933778676 0.1081229012 -0.8397098827 0.9961415526 0.1120520214 -0.8364839952 0.9995007915 0.1151662252 -0.8346223740 1.0036946764 0.1176716136 -0.8340065956 1.0085040008 0.1240939164 -0.8289032235 1.0153079329 0.0319426485 -0.4250143446 1.0044950581 0.0317311896 -0.4182562115 1.0365014863 0.0348691680 -0.4354969078 1.0645923044 0.2646159864 -0.8260278204 0.6557709062 0.4806306186 -0.4524679891 0.6475013452 0.4867499554 -0.4548140943 0.6481353758 0.4866907958 -0.4478967758 0.6480328713 0.4870963122 -0.4406979748 0.5404167254 0.6568147449 -0.3261644066 0.5304355301 0.6452516127 -0.3274961658 0.6568751711 0.5380500639 -0.4409385595 0.7342507545 0.4947108439 -0.5530189907 0.7615115166 0.4648440781 -0.0057028358 0.6474076059 0.3432122315 -0.0430506437 0.8834885491 0.0334369125 -0.1126833348 0.8808716129 0.0302637269 -0.1094598450 0.8836788885 0.0347995635 -0.1089065583 1.0922768430 0.0045699873 -0.4494438627 0.5659438088 0.4111010209 -0.1030938177 0.5629885154 0.4644844149 -0.1528871181 0.5563791026 0.4626191295 -0.1502680760 1.0119892433 -0.0240224073 -0.2790844099 0.8518171946 0.9074292860 -0.4158976888
        </DataArray>
      </Points>
      <Cells>
        <DataArray type="Int32" Name="connectivity" format="ascii">
 0 1 2 3 4 5 6 7 8 9 10 11 12 13 14 15 16 17 18 19 20 21 22 23 24 25 26 27 28 29 30 31 32 33 34 35 36 37 38 39 40 41 42 43 44 45 46 47 48 49 50 51 52 53 54 55 56 57 58 59 60 61 62 63 64 65 66 67 68 69 70 71 72 73 74 75 76 77 78 79 80 81 82 83 84 85 86 87 88 89 90 91 92 93 94 95 96 97 98 99 100 101 102 103 104 105 106 107 108 109 110 111 112 113 114 115 116 117 118 119 120 121 122 123 124 125 126 127 128 129 130 131 132 133 134 135 136 137 138 139 140 141 142 143 144 145 146 147 148 149 150 151 152 153 154 155 156 157 158 159 160 161 162 163 164 165 166 167 168 169 170 171 172 173 174 175 176 177 178 179 180 181 182 183 184 185 186 187 188 189 190 191 192 193 194 195 196 197 198 199 200 201 202 203 204 205 206 207 208 209 210 211 212 213 214 215 216 217 218 219 220 221 222 223 224 225 226 227 228 229 230 231 232
        </DataArray>
        <DataArray type="Int32" Name="offsets" format="ascii">
 1 2 3 4 5 6 7 8 9 10 11 12 13 14 15 16 17 18 19 20 21 22 23 24 25 26 27 28 29 30 31 32 33 34 35 36 37 38 39 40 41 42 43 44 45 46 47 48 49 50 51 52 53 54 55 56 57 58 59 60 61 62 63 64 65 66 67 68 69 70 71 72 73 74 75 76 77 78 79 80 81 82 83 84 85 86 87 88 89 90 91 92 93 94 95 96 97 98 99 100 101 102 103 104 105 106 107 108 109 110 111 112 113 114 115 116 117 118 119 120 121 122 123 124 125 126 127 128 129 130 131 132 133 134 135 136 137 138 139 140 141 142 143 144 145 146 147 148 149 150 151 152 153 154 155 156 157 158 159 160 161 162 163 164 165 166 167 168 169 170 171 172 173 174 175 176 177 178 179 180 181 182 183 184 185 186 187 188 189 190 191 192 193 194 195 196 197 198 199 200 201 202 203 204 205 206 207 208 209 210 211 212 213 214 215 216 217 218 219 220 221 222 223 224 225 226 227 228 229 230 231 232 233
        </DataArray>
        <DataArray type="UInt8" Name="types" format="ascii">
 1 1 1 1 1 1 1 1 1 1 1 1 1 1 1 1 1 1 1 1 1 1 1 1 1 1 1 1 1 1 1 1 1 1 1 1 1 1 1 1 1 1 1 1 1 1 1 1 1 1 1 1 1 1 1 1 1 1 1 1 1 1 1 1 1 1 1 1 1 1 1 1 1 1 1 1 1 1 1 1 1 1 1 1 1 1 1 1 1 1 1 1 1 1 1 1 1 1 1 1 1 1 1 1 1 1 1 1 1 1 1 1 1 1 1 1 1 1 1 1 1 1 1 1 1 1 1 1 1 1 1 1 1 1 1 1 1 1 1 1 1 1 1 1 1 1 1 1 1 1 1 1 1 1 1 1 1 1 1 1 1 1 1 1 1 1 1 1 1 1 1 1 1 1 1 1 1 1 1 1 1 1 1 1 1 1 1 1 1 1 1 1 1 1 1 1 1 1 1 1 1 1 1 1 1 1 1 1 1 1 1 1 1 1 1 1 1 1 1 1 1 1 1 1 1 1 1 1 1 1 1 1 1
        </DataArray>
      </Cells>
      <PointData Scalars="overlap">
        <DataArray type="Float32" Name="overlap" format="ascii">
 0.0000550416 0.0002952957 0.0001162001 0.0003244642 0.0000220863 0.0000789671 0.0000382458 0.0001289762 0.0000486033 0.0002461031 0.0004317501 0.0000749454 0.0000787077 0.0000533407 0.0000067879 0.0002627986 0.0001340470 0.0000967920 0.0000104668 0.0000303123 0.0005296725 0.0001587893 0.0000481274 0.0004722278 0.0001291121 0.0001837548 0.0001099133 0.0001154045 0.0004712976 0.0002673705 0.0001695890 0.0000489652 0.0000646760 0.0000945708 0.0000650245 0.0000282500 0.0001394063 0.0000568389 0.0002618039 0.0001582005 0.0004136636 0.0002482495 0.0000396929 0.0001193864 0.0001644861 0.0002125536 0.0003781930 0.0001568275 0.0002454758 0.0000612633 0.0000278404 0.0000635042 0.0001354083 0.0003507797 0.0000807119 0.0000034332 0.0000989947 0.0000467705 0.0002856528 0.0000265745 0.0001329177 0.0000294048 0.0000903249 0.0001367818 0.0000848211 0.0001554221 0.0001023336 0.0000078038 0.0000389217 0.0001038990 0.0000734245 0.0000173405 0.0000263801 0.0000287326 0.0000169101 0.0000719119 0.0000398179 0.0000282136 0.0000079901 0.0000240318 0.0000504336 0.0000367942 0.0000769957 0.0000103853 0.0000380150 0.0000938954 0.0000041145 0.0001113270 0.0001259622 0.0001108451 0.0000555419 0.0001338222 0.0000033058 0.0000394559 0.0000040288 0.0000447970 0.0000223249 0.0002191594 0.0001863477 0.0000240358 0.0000562079 0.0000484799 0.0001811507 0.0000013964 0.0002587470 0.0000677753 0.0001548717 0.0002523674 0.0001720073 0.0002317440 0.0000042140 0.0002301516 0.0003594936 0.0000046030 0.0002974646 0.0000544134 0.0000365421 0.0010922827 0.0009001497 0.0000630614 0.0000099596 0.0000080654 0.0001598803 0.0002695890 0.0002591666 0.0001099275 0.0001098349 0.0000846181 0.0000616779 0.0000317869 0.0000684232 0.0000584373 0.0000302825 0.0000673440 0.0000173038 0.0000085065 0.0001160468 0.0000920553 0.0000479858 0.0000091194 0.0000671038 0.0000220458 0.0001046868 0.0000279149 0.0000783532 0.0000544554 0.0000465572 0.0001893480 0.0000093895 0.0000521254 0.0000788062 0.0000289118 0.0001501824 0.0001476595 0.0001803458 0.0000473607 0.0000133768 0.0000092317 0.0000628394 0.0000715805 0.0000808644 0.0000635566 0.0002178254 0.0000263707 0.0000161058 0.0000571668 0.0000346789 0.0000168305 0.0000721897 0.0002440510 0.0000104663 0.0002463167 0.0001511821 0.0000456973 0.0000323380 0.0001356412 0.0001095358 0.0001805473 0.0000082815 0.0006789148 0.0000450195 0.0000977855 0.0000584273 0.0000452640 0.0000918349 0.0000301219 0.0000495228 0.0001584997 0.0000615463 0.0000000616 0.0000002707 0.0000010549 0.0000513260 0.0000137191 0.0000062798 0.0000043370 0.0000488413 0.0007289506 0.0000315044 0.0000511883 0.0000313959 0.0001841851 0.0000650326 0.0000178075 0.0000978651 0.0000628728 0.0000423542 0.0000404979 0.0000516341 0.0000173367 0.0000461873 0.0000294365 0.0000196312 0.0000564089 0.0000130165 0.0001329926 0.0002847578 0.0002425538 0.0000540767 0.0000421502 0.0000783161 0.0001708223 0.0000023687 0.0000432693 0.0000914180 0.0000162340 0.0000483208 0.0000117327 0.0000121754 0.0000159452 0.0000342212 0.0000833035 0.0000402633
        </DataArray>
        <DataArray type="Float32" Name="contact normal" NumberOfComponents="3" format="ascii">
 0.5748316689 -0.2083237433 -0.7913088970 0.6998716551 0.5784513756 0.4190151219 -0.4144405883 0.7979925447 -0.4375464517 -0.6187845291 0.7609073688 -0.1952579900 -0.6036545265 0.7487270866 -0.2738776413 -0.6286304296 0.0760070554 -0.7739810789 -0.5309526329 0.0057062254 -0.8473822872 0.1798981977 -0.7608624198 -0.6234781605 -0.6640035089 0.7302618521 -0.1606765931 -0.6127807512 0.7690034488 -0.1820259507 -0.4153990782 -0.9001746572 -0.1308785407 -0.4002784236 -0.8211677669 -0.4067685857 -0.3824279330 0.4663432042 0.7976671561 0.4728912783 -0.5552130351 0.6841873461 0.4537417232 -0.5784137982 0.6779055441 0.5208514102 -0.4950131372 0.6954680457 -0.6932096128 0.0318052557 -0.7200339287 -0.1907342819 -0.1022562629 0.9763012293 -0.8639548319 0.4267242954 -0.2673731926 0.9255305412 -0.2676455106 0.2678788869 0.9101506466 -0.2963911862 0.2894444080 0.9352438505 -0.2879521026 0.2059187383 -0.9969597902 -0.0456559743 -0.0631403886 -0.9926975745 -0.1003246823 -0.0669812197 -0.9933612448 -0.0684157520 -0.0924809292 -0.9379095570 0.2773216356 0.2083707591 -0.8710154736 0.4910073574 -0.0156147274 0.9254448790 -0.0552320145 0.3748348977 0.8852084271 -0.1684226312 0.4336356280 0.1081338077 -0.9806438622 0.1632320288 0.4767830998 0.8765918557 -0.0653038608 -0.5920443354 -0.4511588838 0.6677867672 -0.4310368329 -0.6834091886 0.5892021128 0.2403524329 0.5501701739 -0.7997146290 0.2684270372 0.5114680893 -0.8163009980 -0.0090470898 0.1773038839 -0.9841145680 -0.5492589449 -0.0653811770 -0.8330905792 -0.1014989982 0.2433394506 -0.9646159159 -0.6931755799 0.7081708786 0.1341701238 -0.4067102497 0.6753471894 0.6152178042 0.2757075334 0.6608347345 0.6980564517 0.8204955399 0.1228643166 0.5582933178 0.0550577752 -0.7166366485 0.6952701313 0.2354334895 -0.8595231598 -0.4536419400 0.2425425317 -0.8545068094 -0.4593378202 0.3433861968 -0.8068721079 -0.4806696592 0.3251768396 -0.8164116548 -0.4772127753 0.3125517681 -0.8227763055 -0.4747110103 0.6572341501 -0.4810347219 0.5802145019 -0.7363199171 0.3164524865 -0.5980725738 -0.7334247166 0.2946128082 -0.6126103806 -0.7263497870 0.3609057534 -0.5849470267 -0.7290631968 0.3263836083 -0.6016149892 0.4330050087 0.4992947664 0.7504741159 -0.2306982696 -0.4091506529 -0.8828216420 -0.7285264735 0.3292547580 -0.6006999931 0.3634121898 -0.9307845169 0.0396454722 -0.8566819744 0.4214428939 -0.2974590423 0.3382286178 -0.7725034854 0.5374381519 0.7379850090 -0.4565572369 0.4969241552 -0.5850729137 0.7987812889 -0.1401361415 -0.4282068089 0.1951410888 -0.8823598383 0.1935148584 0.6182921307 0.7617524800 -0.4076659835 -0.7459068110 0.5267176427 0.6861781064 -0.4545266113 0.5679482070 0.6953897694 -0.3433516896 0.6313023728 -0.2654507113 0.6196575658 -0.7386206205 0.9051327208 0.3642932630 -0.2191464724 -0.6503897073 -0.7509638324 -0.1142215005 0.1208620971 0.9300996671 0.3468529411 -0.0832706228 0.7033383077 0.7059612088 -0.2404062466 0.6203150283 -0.7466017026 -0.1908267446 0.6174536324 -0.7631095369 -0.2404217768 0.6203156629 -0.7465961744 -0.2404259987 0.6203158353 -0.7465946716 0.6436574907 -0.5742538396 0.5059027203 0.6460695272 -0.5675002150 0.5104289098 -0.3995333521 -0.8877710692 -0.2285511524 0.1751506625 -0.5913703303 -0.7871488918 -0.2930423606 -0.2658538774 -0.9183941914 0.5386938939 0.0182144464 0.8423046495 0.5389685493 0.0177817529 0.8421381787 0.5390841649 0.0175999336 0.8420679934 0.5389299365 0.0178425938 0.8421616029 0.5394737547 0.0169851917 0.8418310824 0.5393110528 0.0172421471 0.8419301020 0.5731801185 -0.0382405714 0.8185366274 0.5393896462 0.0171295610 0.8418820510 0.5394059340 0.0173642781 0.8418668067 0.5390606347 0.0179784191 0.8420750611 -0.5772315777 -0.1971083292 -0.7924342321 0.5403972549 0.0183511536 0.8412098680 -0.5160899369 -0.0962588534 -0.8511083422 -0.2609947854 -0.2988716030 -0.9179093021 -0.2131228420 0.4225129878 -0.8809434882 -0.5385443917 -0.0088674346 -0.8425504773 -0.5345680397 0.4835568937 -0.6931159653 -0.6231711436 0.4035636045 -0.6699209975 0.3487554187 0.1125407315 -0.9304322875 0.3720930843 0.1739208053 -0.9117556088 -0.9764276747 -0.1874198919 -0.1070643738 -0.7519853009 0.3907077051 0.5309101585 -0.7542440586 0.3890463278 0.5289223525 -0.7263755525 0.4125104739 0.5497396344 0.5147821234 -0.7171529518 0.4697776167 0.2721494609 0.8810642135 -0.3868598230 -0.8441649051 -0.3940886024 -0.3634278283 -0.3151059213 0.6110351531 -0.7261847561 -0.2819267798 0.5656386627 -0.7749646405 0.7139180925 -0.1745888213 0.6781148138 0.7138872687 -0.1745645518 0.6781535112 -0.7050958511 0.4505353904 -0.5475926430 -0.7050999261 0.4505459964 -0.5475786695 -0.4631995737 -0.4966556511 -0.7340158848 -0.7051035342 0.4505553867 -0.5475662969 -0.7051063623 0.4505627474 -0.5475565984 -0.4634780501 -0.4963841952 -0.7340237243 0.1977725112 -0.8860119213 0.4193672723 0.3090663742 -0.8915102004 0.3311910912 -0.4644177796 -0.4964034328 -0.7334164969 -0.6644185941 0.5185051181 0.5382382133 0.5619661051 0.0455651552 0.8259043004 -0.6541283371 0.5266299455 0.5429337153 0.6710620154 0.1989639691 0.7142052299 -0.8452398854 0.5219791949 0.1144869263 -0.6058874729 -0.1648845451 -0.7782759517 -0.8323669121 0.5328899513 -0.1522945288 -0.0718862884 -0.4848706953 -0.8716265085 -0.5002040505 0.0430114103 -0.8648386707 -0.5366193429 -0.0128718542 -0.8437262567 0.7097759659 0.1899867981 -0.6783237390 0.4033743692 0.9137105968 0.0492144651 0.3956308728 0.9093206292 0.1288883458 -0.0671761365 0.0815436731 -0.9944033367 -0.0332966090 -0.2853648669 0.9578403983 -0.0252829742 -0.2948668006 0.9552038218 -0.2253196491 -0.4038929808 -0.8866236607 0.9824065881 0.1568248786 -0.1014063761 0.0230389801 0.8034339601 0.5949479617 -0.0640145201 0.7570819473 0.6501761809 0.6607063096 0.7157573698 0.2261825811 0.6191218687 0.7641756155 0.1808970436 0.1496637201 0.9256290599 0.3475796519 -0.2443753998 0.6729483097 -0.6981555961 -0.2697207875 0.6662196933 -0.6952711824 -0.7508309076 0.5611610171 -0.3483550791 -0.7305769279 0.5987524312 -0.3282573359 0.3777827273 -0.6336591564 0.6750972407 0.3807109764 -0.6241297511 0.6822911447 -0.6714366050 -0.6836181203 0.2860754291 0.0958641862 -0.6665302032 -0.7392885404 -0.6402697105 0.5270804827 -0.5587851667 -0.6635700019 0.7444673315 -0.0737783502 -0.6985364175 0.4732127594 -0.5367648999 -0.7945645020 0.3837486294 -0.4705361215 -0.7486883497 -0.5430284862 0.3802444190 -0.7622056963 0.4856283840 -0.4280275098 -0.2286201801 0.5362090883 -0.8125346927 -0.2629526194 0.5802560830 -0.7708169680 -0.3806584095 0.3671707101 0.8486959673 -0.3806606260 0.3616488221 0.8510626401 0.7379699982 0.6699410534 -0.0811126790 -0.6049996345 0.2433979761 0.7581113820 -0.5751947894 -0.1805724386 -0.7978374199 -0.0569416413 -0.1864233576 -0.9808180164 -0.2394484280 -0.2677381598 -0.9332634827 -0.1324118646 -0.0890450186 -0.9871869543 -0.3922196945 -0.8662733047 -0.3094095551 -0.5098802329 0.6113249160 -0.6052305306 -0.6185994911 0.5361164166 -0.5743812824 -0.6501826427 0.5115952643 -0.5617230783 -0.6007732573 0.5157682860 -0.6107819321 -0.6496801160 0.5080826480 -0.5654801232 0.8453263287 -0.3160347034 0.4307498859 0.8395370025 -0.3599029956 0.4069981021 0.8498879818 -0.3383370112 0.4040030757 0.5198773672 -0.6329649821 -0.5736574365 0.9660434025 -0.1512509019 0.2094834340 -0.9311177004 -0.2248990800 0.2871240706 -0.1758194884 -0.9653960879 -0.1926081538 0.7733802245 0.0329613679 0.6330849679 -0.1812145119 0.8971760428 -0.4027858598 -0.9220995732 -0.0102807246 -0.3868160854 -0.7992426875 0.2208802354 -0.5589481623 0.3446255781 -0.3872827322 0.8551288185 -0.3951073393 0.4743623955 -0.7866832324 -0.4003761746 0.3179867140 -0.8594087319 0.7155153613 -0.5115071241 0.4758132298 0.7170541413 0.0936165832 0.6907020297 0.1149877610 -0.6710074314 -0.7324799259 0.1155379641 -0.6705518096 -0.7328105140 -0.2016754140 -0.7627604499 0.6144294291 -0.4812574182 0.4683933739 -0.7409446300 -0.4864175714 0.4539531935 -0.7465416561 -0.8871624819 -0.4323870991 -0.1611959282 -0.1392827711 0.8304541026 -0.5393943763 -0.1430674084 0.8581447622 -0.4930712765 -0.4101616163 0.8146993376 0.4099175988 -0.5871647321 -0.8058569372 0.0763686730 0.8525545455 0.1224278578 -0.5080966114 0.8845621457 0.1754499923 -0.4321656056 0.6915019769 0.5861368553 -0.4222186671 0.3505517666 -0.7284628677 0.5886045441 0.3506420918 -0.7282469080 0.5888179382 0.3507332456 -0.7282664935 0.5887394202 0.3507083690 -0.7282439112 0.5887821717 0.3506983445 -0.7282408984 0.5887918690 0.3507111560 -0.7282436939 0.5887807804 0.3507484250 -0.7282518031 0.5887485488 0.3507363547 -0.7282491695 0.5887589971 -0.3289210761 0.8303470536 -0.4498162916 -0.2835508453 0.9204601298 -0.2689833965 -0.2228645233 0.9427010789 -0.2482862866 0.8337403127 -0.4002195829 -0.3803963412 -0.5518577075 -0.8323269714 0.0518158601 -0.5812188438 -0.8130151806 0.0345104581 -0.5876926293 -0.8073119183 0.0535242001 -0.6013218086 -0.7937638224 0.0913842260 0.5755996359 -0.2742006710 -0.7703888960 0.4792899953 -0.4424151528 -0.7579907209 -0.4729033854 0.8649035143 -0.1682388158 0.1986460513 -0.2194371850 0.9551895457 -0.1370181676 -0.9904395898 -0.0159825117 0.6910712115 0.3661365445 0.6231890656 -0.8001068939 0.5645484714 -0.2027658300 -0.8251251333 0.5466902779 -0.1424719428 -0.8031274586 0.5767221098 -0.1495924240 0.8311147667 -0.1869367467 -0.5237393410 -0.3407008112 -0.7008769986 0.6266533253 -0.4059178407 0.5617433793 -0.7208849301 -0.4485482782 0.5487397812 -0.7054708319 -0.0476572478 0.1705677060 -0.9841927882 0.3595652409 -0.3384885153 0.8695621672
        </DataArray>
        <DataArray type="Float32" Name="contact force" NumberOfComponents="3" format="ascii">