<?xml version="1.0"?>
<VTKFile type="UnstructuredGrid" version="0.1" byte_order="LittleEndian">
  <UnstructuredGrid>
    <FieldData>
      <DataArray type="Float32" Name="TIME"  NumberOfTuples="1" format="ascii"> 0.5500000000 </DataArray>
      <DataArray type="Int32"   Name="STEP"  NumberOfTuples="1" format="ascii"> 55000 </DataArray>
    </FieldData>
    <Piece NumberOfPoints="2004" NumberOfCells="2004">
      <Points>
        <DataArray type="Float32" NumberOfComponents="3" format="ascii">
 0.0303077463 0.9987779120 -0.0770943777 -0.0417527244 0.9977159270 -0.0401579236 0.0049074680 0.9953123637 -0.1474422926 0.0494898847 0.9954543153 -0.0107239819 -0.0950280515 0.9986098111 -0.0937842221 0.0873790814 0.9965704580 -0.1334426807 -0.0309091182 0.9898069368 0.0325126959 -0.0575128885 0.9904178053 -0.1855586986 0.1217115508 0.9972270588 -0.0320669526 -0.1294421057 0.9966511280 -0.0243769636 0.0599281900 0.9865522321 -0.2077388477 0.0436365239 0.9833983466 0.0666514509 -0.1387178043 0.9943092172 -0.1569167059 0.1606861157 0.9979218463 -0.1125901556 -0.0990769632 0.9844282672 0.0616255809 -0.0235639633 0.9771851652 -0.2499804498 0.1378067826 0.9885154410 0.0403342189 -0.1907437434 0.9987203849 -0.0694600892 0.1352049865 0.9855624764 -0.2127712803 -0.0105015200 0.9705368441 0.1174483635 -0.1306344196 0.9814453121 -0.2323914067 0.2074243305 0.9981520740 -0.0488459890 -0.1766487664 0.9877093169 0.0446081265 0.0457482058 0.9671199470 -0.2855623911 0.1076368452 0.9717437440 0.1133802998 -0.2198547524 0.9953720427 -0.1470615670 0.2105251393 0.9919848167 -0.1747859263 -0.0908650405 0.9647394009 0.1362235272 -0.0807196556 0.9629918499 -0.2985440806 0.2163761541 0.9890091742 0.0375274527 -0.2451025581 0.9956603314 -0.0131037569 0.1334240247 0.9668534822 -0.2863380880 0.0407319309 0.9533877764 0.1688456673 -0.2072271551 0.9804185193 -0.2369132595 0.2673816168 0.9984510388 -0.0991426404 -0.1822131521 0.9703292450 0.1180061906 0.0001945658 0.9475418495 -0.3406921626 0.1821431786 0.9682005132 0.1254353433 -0.2857425511 0.9983032427 -0.1037406350 0.2246357355 0.9775423485 -0.2483405543 -0.0512016718 0.9427151329 0.1955389677 -0.1527076656 0.9561758280 -0.3182399990 0.2877882879 0.9940295964 0.0023820432 -0.2690617368 0.9847349678 0.0599453522 0.1002514283 0.9435021967 -0.3504635265 0.1096595580 0.9425331850 0.1961121112 -0.2831136982 0.9859642078 -0.2110003160 0.3023160121 0.9924854040 -0.1704526475 -0.1565292607 0.9461883921 0.1870618813 -0.0651094871 0.9325271233 -0.3755718966 0.2610188631 0.9728606581 0.1095423686 -0.3322233118 0.9970341180 -0.0361883594 0.2078463801 0.9544891002 -0.3225041709 0.0098842977 0.9232856820 0.2379429606 -0.2329367687 0.9582083305 -0.3126443701 0.3455543276 0.9974070319 -0.0590769526 -0.2629422702 0.9639182881 0.1385782437 0.0440876834 0.9203253252 -0.4006596618 0.1897166001 0.9405829824 0.2007587247 -0.3511769035 0.9927723470 -0.1579641821 0.3088218734 0.9762778151 -0.2525150905 -0.1062262510 0.9196303785 0.2450989545 -0.1437255377 0.9256174661 -0.3901968994 0.3377071793 0.9824314217 0.0670419958 -0.3527977851 0.9854680770 0.0469819198 0.1647165907 0.9261588021 -0.3888042949 0.0860627490 0.9107279813 0.2621875343 -0.3157950390 0.9680486127 -0.2819567608 0.3796485505 0.9878655125 -0.1403540812 -0.2288009099 0.9350175592 0.2130025483 -0.0288393411 0.9021456695 -0.4344348991 0.2760430030 0.9481990931 0.1823669179 -0.3970873943 0.9807725723 -0.0813724351 0.2860642460 0.9496652398 -0.3349106881 -0.0373433836 0.8958383267 0.2883031273 -0.2312251669 0.9287273464 -0.3838231323 0.3962169890 0.9724598982 -0.0024749339 -0.3442161331 0.9631282716 0.1358329762 0.1008508595 0.8977704346 -0.4418702467 0.1730168898 0.9079585287 0.2673265434 -0.3888044959 0.9677950812 -0.2233833497 0.3851948921 0.9661764314 -0.2319350947 -0.1713328085 0.9028474474 0.2761348665 -0.1140441485 0.8927159606 -0.4505562854 0.3615149567 0.9586613522 0.1382742041 -0.4101897622 0.9427024013 0.0081053956 0.2370179362 0.9160719384 -0.4087348507 0.0452668990 0.8793210838 0.3149749034 -0.3233696607 0.9411606849 -0.3545685691 0.4146232452 0.9151066777 -0.0900406105 -0.3068151675 0.9313036567 0.2203448605 0.0215452920 0.8745066297 -0.4791722122 0.2674542932 0.9162643716 0.2518819484 -0.4171555491 0.9010881776 -0.1377689517 0.3649562962 0.9444585147 -0.3263247673 -0.0961727985 0.8731510512 0.3242150411 -0.2084529764 0.8943793444 -0.4478740336 0.4088600387 0.9038737243 0.0583949528 -0.4039915113 0.9179404121 0.1035893437 0.1672674318 0.8814271387 -0.4684359644 0.1382934031 0.8732930837 0.3242106916 -0.3973923475 0.9202029911 -0.2908442860 0.4137752961 0.8701955733 -0.1820630431 -0.2445619451 0.8933590667 0.2922541105 -0.0692975717 0.8604107909 -0.4997872348 0.3621639060 0.9258319045 0.2104982764 -0.4204678288 0.8348535533 -0.0471921495 0.3157735821 0.9129075988 -0.4128156132 -0.0080588446 0.8508595563 0.3559487016 -0.3093458818 0.9073980655 -0.4241931465 0.4176599204 0.8186770465 -0.0341161440 -0.3804661367 0.9125191232 0.2041564827 0.0824879362 0.8516327041 -0.5117860411 0.2395853087 0.8796046405 0.3146969083 -0.4164232099 0.8216982788 -0.1959783166 0.4041854984 0.8586250067 -0.2800554659 -0.1641334754 0.8567127550 0.3478036604 -0.1693311672 0.8581788024 -0.5030084950 0.4051505188 0.8424616743 0.1205573582 -0.4164258394 0.8027790759 0.0456683704 0.2417890658 0.8723133118 -0.4822410565 0.0899834257 0.8394930680 0.3710262989 -0.3901402127 0.8786559657 -0.3598192538 0.4178978830 0.7670876906 -0.1252672636 -0.3243745233 0.8899880306 0.2941153467 -0.0132241896 0.8311689880 -0.5384779902 0.3445795887 0.8920630847 0.2812498075 -0.4210367275 0.7497171249 -0.1035275293 0.3814626984 0.8741329124 -0.3868306692 -0.0710643959 0.8272714853 0.3862484483 -0.2771288790 0.8691350257 -0.4871910327 0.4154304354 0.7497613507 0.0230004674 -0.4054221457 0.8035152723 0.1458083644 0.1520374979 0.8349624591 -0.5335615865 0.1964792022 0.8412944134 0.3687915881 -0.4111465357 0.7683061283 -0.2565892547 0.4125205110 0.7479370076 -0.2192182862 -0.2400546773 0.8475363267 0.3601816554 -0.1177199145 0.8230249882 -0.5485717310 0.3958663767 0.8040429945 0.1867199649 -0.4200454105 0.7112599992 -0.0123703886 0.3227301935 0.8682133401 -0.4826344406 0.0313136874 0.8089571809 0.4080613051 -0.3734943365 0.8531153199 -0.4325659188 0.4186295096 0.6927485591 -0.0691140266 -0.3824493533 0.8329774478 0.2576647622 0.0517655414 0.8068390815 -0.5674082463 0.3100710582 0.8556841163 0.3464192354 -0.4191668111 0.6906359181 -0.1604286373 0.4000757419 0.7587851703 -0.3215436449 -0.1421653403 0.8099288387 0.4067909290 -0.2303354335 0.8290595015 -0.5412826728 0.4106533605 0.7041757607 0.0823927267 -0.4134944956 0.7016908564 0.0827012937 0.2293337003 0.8254996361 -0.5452383592 0.1417326149 0.8042675296 0.4134918397 -0.4025594171 0.7363485718 -0.3212005721 0.4166158433 0.6653368479 -0.1607172967 -0.3221890824 0.8426026468 0.3597398521 -0.0565605745 0.7912679617 -0.5847676676 0.3814644781 0.7853145716 0.2587006273 -0.4213076467 0.6451739364 -0.0689874373 0.3755512804 0.7982832684 -0.4375308783 -0.0355868418 0.7834540417 0.4359777578 -0.3444979629 0.8345600557 -0.5061513766 0.4173328627 0.6403277118 -0.0127280063 -0.3994217242 0.7197989059 0.1874552313 0.1243492443 0.7887288268 -0.5873322966 0.2602557668 0.8146627586 0.4014367936 -0.4150920381 0.6509655537 -0.2191326469 0.4088484410 0.6640542765 -0.2571866067 -0.2207486074 0.7998069253 0.4181515789 -0.1725462279 0.7903273634 -0.5858858213 0.4030373562 0.6764697167 0.1454557114 -0.4182818425 0.6260209904 0.0230439914 0.3127843891 0.8200180259 -0.5447230056 0.0781431877 0.7708460156 0.4490478694 -0.3898181703 0.7215035221 -0.3913932569 0.4184790775 0.6048163141 -0.1040151624 -0.3725212700 0.7658598696 0.3076212426 0.0121963582 0.7646077398 -0.6122422096 0.3596551481 0.7812445032 0.3371072800 -0.4206079291 0.5978209627 -0.1253691125 0.3929586097 0.6887957102 -0.3644529050 -0.1095832180 0.7642176504 0.4554901050 -0.2963743630 0.8036497162 -0.5682853735 0.4139524376 0.6043855354 0.0451272176 -0.4092182678 0.6309047225 0.1211118014 0.2041072316 0.7777757117 -0.5987638716 0.1994845840 0.7738495351 0.4461119511 -0.4084088959 0.6264610483 -0.2810076916 0.4144148905 0.5930773296 -0.1968136040 -0.3056257084 0.7941750552 0.4182519378 -0.1065425471 0.7553439445 -0.6213801923 0.3917116495 0.6633424853 0.2137062487 -0.4207779742 0.5698992678 -0.0343111139 0.3631003251 0.7407900229 -0.4884520803 0.0075554729 0.7426632095 0.4761657988 -0.3712142565 0.7208929041 -0.4686243064 0.4183753237 0.5607361995 -0.0478713010 -0.3913109327 0.6605173019 0.2313039771 0.0875482985 0.7442072326 -0.6317251379 0.3234440957 0.7781427910 0.4153836130 -0.4178944090 0.5648369204 -0.1827692223 0.4039572941 0.6038367787 -0.2966660024 -0.1904045253 0.7521307560 0.4671204086 -0.2331462953 0.7624142660 -0.6145653495 0.4081359606 0.5815936751 0.1057737314 -0.4156350271 0.5637697843 0.0593646435 0.2904051493 0.7721807593 -0.6000909713 0.1310378479 0.7368990196 0.4815520947 -0.3983517829 0.6146195662 -0.3475425578 0.4175710115 0.5398111334 -0.1390991233 -0.3579870640 0.7165398483 0.3595846066 -0.0341191021 0.7256944160 -0.6485627573 0.3752287906 0.6628074784 0.2887091651 -0.4212718224 0.5285423073 -0.0906615586 0.3838109296 0.6384291336 -0.4098065101 -0.0691183123 0.7208036628 0.4956387199 -0.3434904294 0.7308566633 -0.5529408887 0.4163024128 0.5294623247 0.0089522207 -0.4036678185 0.5789178144 0.1613063611 0.1693366933 0.7308872991 -0.6437786644 0.2627330884 0.7476701173 0.4706724554 -0.4128844903 0.5435085988 -0.2424936911 0.4112963806 0.5391381978 -0.2339021119 -0.2779618254 0.7463987386 0.4699104396 -0.1621961944 0.7236526607 -0.6504679664 0.3992281386 0.5699609060 0.1706525316 -0.4194852980 0.5129722280 0.0007715521 0.3465147548 0.6986876222 -0.5420202993 0.0567390402 0.7054566824 0.5087468289 -0.3836699006 0.6139682370 -0.4203177821 0.4186672215 0.5000705013 -0.0827302642 -0.3810298333 0.6171215031 0.2778881316 0.0438694704 0.7023899792 -0.6683081809 0.3512576197 0.6732587237 0.3716847749 -0.4
[...]
      <PointData Scalars="material ID">
        <DataArray type="Int32" Name="material ID" format="ascii">
 0 0 0 0 0 0 0 0 0 0 0 0 0 0 0 0 0 0 0 0 0 0 0 0 0 0 0 0 0 0 0 0 0 0 0 0 0 0 0 0 0 0 0 0 0 0 0 0 0 0 0 0 0 0 0 0 0 0 0 0 0 0 0 0 0 0 0 0 0 0 0 0 0 0 0 0 0 0 0 0 0 0 0 0 0 0 0 0 0 0 0 0 0 0 0 0 0 0 0 0 0 0 0 0 0 0 0 0 0 0 0 0 0 0 0 0 0 0 0 0 0 0 0 0 0 0 0 0 0 0 0 0 0 0 0 0 0 0 0 0 0 0 0 0 0 0 0 0 0 0 0 0 0 0 0 0 0 0 0 0 0 0 0 0 0 0 0 0 0 0 0 0 0 0 0 0 0 0 0 0 0 0 0 0 0 0 0 0 0 0 0 0 0 0 0 0 0 0 0 0 0 0 0 0 0 0 0 0 0 0 0 0 0 0 0 0 0 0 0 0 0 0 0 0 0 0 0 0 0 0 0 0 0 0 0 0 0 0 0 0 0 0 0 0 0 0 0 0 0 0 0 0 0 0 0 0 0 0 0 0 0 0 0 0 0 0 0 0 0 0 0 0 0 0 0 0 0 0 0 0 0 0 0 0 0 0 0 0 0 0 0 0 0 0 0 0 0 0 0 0 0 0 0 0 0 0 0 0 0 0 0 0 0 0 0 0 0 0 0 0 0 0 0 0 0 0 0 0 0 0 0 0 0 0 0 0 0 0 0 0 0 0 0 0 0 0 0 0 0 0 0 0 0 0 0 0 0 0 0 0 0 0 0 0 0 0 0 0 0 0 0 0 0 0 0 0 0 0 0 0 0 0 0 0 0 0 0 0 0 0 0 0 0 0 0 0 0 0 0 0 0 0 0 0 0 0 0 0 0 0 0 0 0 0 0 0 0 0 0 0 0 0 0 0 0 0 0 0 0 0 0 0 0 0 0 0 0 0 0 0 0 0 0 0 0 0 0 0 0 0 0 0 0 0 0 0 0 0 0 0 0 0 0 0 0 0 0 0 0 0 0 0 0 0 0 0 0 0 0 0 0 0 0 0 0 0 0 0 0 0 0 0 0 0 0 0 0 0 0 0 0 0 0 0 0 0 0 0 0 0 0 0 0 0 0 0 0 0 0 0 0 0 0 0 0 0 0 0 0 0 0 0 0 0 0 0 0 0 0 0 0 0 0 0 0 0 0 0 0 0 0 0 0 0 0 0 0 0 0 0 0 0 0 0 0 0 0 0 0 0 0 0 0 0 0 0 0 0 0 0 0 0 0 0 0 0 0 0 0 0 0 0 0 0 0 0 0 0 0 0 0 0 0 0 0 0 0 0 0 0 0 0 0 0 0 0 0 0 0 0 0 0 0 0 0 0 0 0 0 0 0 0 0 0 0 0 0 0 0 0 0 0 0 0 0 0 0 0 0 0 0 0 0 0 0 0 0 0 0 0 0 0 0 0 0 0 0 0 0 0 0 0 0 0 0 0 0 0 0 0 0 0 0 0 0 0 0 0 0 0 0 0 0 0 0 0 0 0 0 0 0 0 0 0 0 0 0 0 0 0 0 0 0 0 0 0 0 0 0 0 0 0 0 0 0 0 0 0 0 0 0 0 0 0 0 0 0 0 0 0 0 0 0 0 0 0 0 0 0 0 0 0 0 0 0 0 0 0 0 0 0 0 0 0 0 0 0 0 0 0 0 0 0 0 0 0 0 0 0 0 0 0 0 0 0 0 0 0 0 0 0 0 0 0 0 0 0 0 0 0 0 0 0 0 0 0 0 0 0 0 0 0 0 0 0 0 0 0 0 0 0 0 0 0 0 0 0 0 0 0 0 0 0 0 0 0 0 0 0 0 0 0 0 0 0 0 0 0 0 0 0 0 0 0 0 0 0 0 0 0 0 0 0 0 0 0 0 0 0 0 0 0 0 0 0 0 0 0 0 0 0 0 0 0 0 0 0 0 0 0 0 0 0 0 0 0 0 0 0 0 0 0 0 0 0 0 0 0 0 0 0 0 0 0 0 0 0 0 0 0 0 0 0 0 0 0 0 0 0 0 0 0 0 0 0 0 0 0 0 0 0 0 0 0 0 0 0 0 0 0 0 0 0 0 0 0 0 0 0 0 0 0 0 0 0 0 0 0 0 0 0 0 0 0 0 0 0 0 0 0 0 0 0 0 0 0 0 0 0 0 0 0 0 0 0 0 0 0 0 0 0 0 0 0 0 0 0 0 0 0 0 0 0 0 0 0 0 0 0 0 0 0 0 0 0 0 0 0 0 0 0 0 0 0 0 0 0 0 0 0 0 0 0 0 0 0 0 0 0 0 0 0 0 0 0 0 0 0 0 0 0 0 0 0 0 0 0 0 0 0 0 0 0 0 0 0 0 0 0 0 0 0 0 0 0 0 0 0 0 0 0 0 0 0 0 0 0 0 0 0 0 0 0 0 0 0 0 0 0 0 0 0 0 0 0 0 0 0 0 0 0 0 0 0 0 0 0 0 0 0 0 0 0 0 0 0 0 0 0 0 0 0 0 0 0 0 0 0 0 0 0 0 0 0 0 0 0 0 0 0 0 0 0 0 0 0 0 0 0 0 0 0 0 0 0 0 0 0 0 0 0 0 0 0 0 0 0 0 0 0 0 0 0 0 0 0 0 0 0 0 0 0 0 0 0 0 0 0 0 0 0 0 0 0 0 0 0 0 0 0 0 0 0 0 0 0 0 0 0 0 0 0 0 0 0 0 0 0 0 0 0 0 0 0 0 0 0 0 0 0 0 0 0 0 0 0 0 0 0 0 0 0 0 0 0 0 0 0 0 0 0 0 0 0 0 0 0 0 0 0 0 0 0 0 0 0 0 0 0 0 0 0 0 0 0 0 0 0 0 0 0 0 0 0 0 0 0 0 0 0 0 0 0 0 0 0 0 0 0 0 0 0 0 0 0 0 0 0 0 0 0 0 0 0 0 0 0 0 0 0 0 0 0 0 0 0 0 0 0 0 0 0 0 0 0 0 0 0 0 0 0 0 0 0 0 0 0 0 0 0 0 0 0 0 0 0 0 0 0 0 0 0 0 0 0 0 0 0 0 0 0 0 0 0 0 0 0 0 0 0 0 0 0 0 0 0 0 0 0 0 0 0 0 0 0 0 0 0 0 0 0 0 0 0 0 0 0 0 0 0 0 0 0 0 0 0 0 0 0 0 0 0 0 0 0 0 0 0 0 0 0 0 0 0 0 0 0 0 0 0 0 0 0 0 0 0 0 0 0 0 0 0 0 0 0 0 0 0 0 0 0 0 0 0 0 0 0 0 0 0 0 0 0 0 0 0 0 0 0 0 0 0 0 0 0 0 0 0 0 0 0 0 0 0 0 0 0 0 0 0 0 0 0 0 0 0 0 0 0 0 0 0 0 0 0 0 0 0 0 0 0 0 0 0 0 0 0 0 0 0 0 0 0 0 0 0 0 0 0 0 0 0 0 0 0 0 0 0 0 0 0 0 0 0 0 0 0 0 0 0 0 0 0 0 0 0 0 0 0 0 0 0 0 0 0 0 0 0 0 0 0 0 0 0 0 0 0 0 0 0 0 0 0 0 0 0 0 0 0 0 0 0 0 0 0 0 0 0 0 0 0 0 0 0 0 0 0 0 0 0 0 0 0 0 0 0 0 0 0 0 0 0 0 0 0 0 0 0 0 0 0 0 0 0 0 0 0 0 0 0 0 0 0 0 0 0 0 0 0 0 0 0 0 0 0 0 0 0 0 0 0 0 0 0 0 0 0 0 0 0 0 0 0 0 0 0 0 0 0 0 0 0 0 0 0 0 0 0 0 0 0 0 0 0 0 0 0 0 0 0 0 0 0 0 0 0 0 0 0 0 0 0 0 0 0 0 0 0 0 0 0 0 0 0 0 0 0 0 0 0 0 0 0 0 0 0 0 0 0 0 0 0 0 0 0 0 0 0 0 0 0 0 0 0 0 0 0 0 0 0 0 0 0 0 0 0 0 0 0 0 0 0 0 0 0 0 0 0 0 0 0 0 0 0 0 0 0 0 0 0 0 0 0 0 0 0 0 0 0 0 0 0 0 0 0 0 0 0 0 0 0 0 0 0 0 0 0 0 0 0 0 0 0 0 0 0 0 0 0 0 0 0 0 0 0 0 0 0 0 0 0 0 0 0 0 0 0 0 0 0 0 0 0 0 0 0 0 0 0 0 0 0 0 0 0 0 0 0 0 0 0 0 0 0 0 0 0 0 0 0 0 0 0 0 0 0 0 0 0 0 0 0 0 0 0 0 0 0 0 0 0 0 0 0 0 0 0 0 0 0 0 0 0 0 0 0 0 0 0 0 0 0 0 0 0 0 0 0 0 0 0 0 0 0 0 0 0 0 0 0 0 0 0 0 0 0 0 0 0 0 0 0 0 0 0 0 0 0 0 0 0 0 0 0 0 0 0 0 0 0 0 0 0 0
        </DataArray>
        <DataArray type="Float32" Name="velocity" NumberOfComponents="3" format="ascii">
 -0.0040362115 -0.0036661556 -1.2500526789 -0.0039514785 -0.0034716249 -1.2498817775 -0.0041975007 -0.0040393319 -1.2499760590 -0.0038839331 -0.0033141578 -1.2500790630 -0.0040744877 -0.0037566563 -1.2497643245 -0.0041654127 -0.0039637924 -1.2501718779 -0.0037846747 -0.0030863810 -1.2498647399 -0.0042848419 -0.0042423306 -1.2498069597 -0.0039329134 -0.0034260595 -1.2502541002 -0.0039152666 -0.0033894499 -1.2496750156 -0.0043356494 -0.0043579233 -1.2500558336 -0.0037062702 -0.0029042592 -1.2500017562 -0.0042192142 -0.0040919010 -1.2496413321 -0.0041176087 -0.0038520917 -1.2503471718 -0.0037178143 -0.0029332414 -1.2496798933 -0.0044323782 -0.0045831276 -1.2498147064 -0.0037667144 -0.0030421568 -1.2502448545 -0.0040187010 -0.0036293452 -1.2495453819 -0.0043471752 -0.0043833488 -1.2502232400 -0.0035895532 -0.0026359897 -1.2498094378 -0.0043921071 -0.0044916913 -1.2495917088 -0.0039714122 -0.0035135557 -1.2504555880 -0.0037568987 -0.0030246911 -1.2495193643 -0.0045138212 -0.0047705264 -1.2499203438 -0.0035989034 -0.0026555991 -1.2500867888 -0.0041966285 -0.0040410176 -1.2494608723 -0.0042601598 -0.0041808320 -1.2504300209 -0.0035463960 -0.0025378284 -1.2495944009 -0.0045435274 -0.0048413971 -1.2496084099 -0.0037731600 -0.0030557348 -1.2504276733 -0.0038893946 -0.0033316212 -1.2494044929 -0.0045155960 -0.0047731921 -1.2501200206 -0.0034713885 -0.0023628029 -1.2498360751 -0.0044024613 -0.0045169135 -1.2494105990 -0.0040867749 -0.0037790785 -1.2505946870 -0.0035882704 -0.0026358630 -1.2494145090 -0.0046399414 -0.0050633972 -1.2497121245 -0.0035711962 -0.0025904946 -1.2502388979 -0.0040973182 -0.0038125553 -1.2493252873 -0.0044286229 -0.0045703490 -1.2503858569 -0.0034099903 -0.0022228757 -1.2495686691 -0.0045885886 -0.0049469474 -1.2494071854 -0.0038538503 -0.0032407858 -1.2506180625 -0.0037216730 -0.0029449452 -1.2492916503 -0.0046622860 -0.0051135250 -1.2499202044 -0.0034086728 -0.0022171885 -1.2499366478 -0.0043431201 -0.0043808569 -1.2492659349 -0.0042502295 -0.0041563587 -1.2506432002 -0.0034294901 -0.0022695292 -1.2493454993 -0.0047196924 -0.0052492930 -1.2494827869 -0.0036077243 -0.0026734084 -1.2504444961 -0.0039423629 -0.0034553767 -1.2492119567 -0.0045983409 -0.0049636019 -1.2502251957 -0.0033124146 -0.0019971801 -1.2496058204 -0.0045757882 -0.0049186192 -1.2492339460 -0.0039948651 -0.0035654915 -1.2507684479 -0.0035409818 -0.0025281863 -1.2491953827 -0.0047770313 -0.0053804283 -1.2496685812 -0.0033979834 -0.0021912482 -1.2501099288 -0.0042215913 -0.0041009517 -1.2491459035 -0.0044381766 -0.0045910819 -1.2505722413 -0.0032959418 -0.0019611751 -1.2493201467 -0.0047531217 -0.0053280828 -1.2492658645 -0.0037053586 -0.0028973448 -1.2506710977 -0.0037514174 -0.0030150151 -1.2491034823 -0.0047499366 -0.0053156220 -1.2499761596 -0.0032566017 -0.0018674585 -1.2497139988 -0.0045055669 -0.0047573776 -1.2490960480 -0.0041811209 -0.0039955990 -1.2507960863 -0.0033698100 -0.0021332662 -1.2491205491 -0.0048541969 -0.0055605972 -1.2494049897 -0.0034402914 -0.0022872799 -1.2503482786 -0.0040457268 -0.0036958657 -1.2489770215 -0.0046267163 -0.0050280526 -1.2503790315 -0.0031964590 -0.0017311110 -1.2493520641 -0.0047385544 -0.0052957512 -1.2490816585 -0.0038646347 -0.0032647354 -1.2507524559 -0.0035472652 -0.0025440719 -1.2490047911 -0.0048711782 -0.0055978587 -1.2496792569 -0.0032447695 -0.0018387954 -1.2498987576 -0.0043712218 -0.0044482131 -1.2489272540 -0.0043908089 -0.0044807748 -1.2506938815 -0.0032244830 -0.0017977954 -1.2490818927 -0.0048910167 -0.0056474246 -1.2491596025 -0.0035415925 -0.0025195091 -1.2505997497 -0.0038398779 -0.0032219586 -1.2487452454 -0.0047954821 -0.0054200383 -1.2500885381 -0.0031350139 -0.0015884222 -1.2494540135 -0.0046716625 -0.0051422560 -1.2489362022 -0.0040645258 -0.0037284230 -1.2504907697 -0.0033529088 -0.0020956462 -1.2489219405 -0.0049563487 -0.0057968201 -1.2493740962 -0.0032803292 -0.0019190769 -1.2501593650 -0.0041737621 -0.0039950287 -1.2485087646 -0.0046069383 -0.0049812579 -1.2505323849 -0.0031137195 -0.0015417911 -1.2490969212 -0.0048848923 -0.0056347674 -1.2489518852 -0.0037238967 -0.0029419913 -1.2504180306 -0.0036204730 -0.0027159085 -1.2486282531 -0.0049318387 -0.0057375303 -1.2497449870 -0.0031137318 -0.0015379512 -1.2496354332 -0.0045251625 -0.0048058149 -1.2486553775 -0.0042748437 -0.0042160432 -1.2502508510 -0.0031873564 -0.0017135896 -1.2488636614 -0.0050033980 -0.0059075511 -1.2490910531 -0.0033754023 -0.0021367993 -1.2504272822 -0.0039649286 -0.0035151372 -1.2481502053 -0.0048047894 -0.0054403638 -1.2502524008 -0.0030405696 -0.0013721898 -1.2491808971 -0.0048307935 -0.0055109500 -1.2487894659 -0.0039346717 -0.0034320418 -1.2499867755 -0.0033897281 -0.0021826383 -1.2486534835 -0.0050307732 -0.0059686294 -1.2493926672 -0.0031356561 -0.0015866937 -1.2499011945 -0.0043059600 -0.0043034550 -1.2480897750 -0.0044994033 -0.0047354410 -1.2501675465 -0.0030593471 -0.0014179200 -1.2488539473 -0.0050107494 -0.0059262680 -1.2488497944 -0.0035803125 -0.0026126678 -1.2500841140 -0.0037514201 -0.0030230236 -1.2479895204 -0.0049633511 -0.0058094526 -1.2498676138 -0.0030058012 -0.0012906817 -1.2493455333 -0.0046826754 -0.0051711783 -1.2484518623 -0.0041428811 -0.0039150272 -1.2497139609 -0.0031830320 -0.0017050423 -1.2486627451 -0.0050916553 -0.0061116409 -1.2490647143 -0.0032125739 -0.0017621926 -1.2502080184 -0.0040927338 -0.0038136551 -1.2476977817 -0.0047445528 -0.0053015932 -1.2501976036 -0.0029706871 -0.0012126763 -1.2489114030 -0.0049746518 -0.0058442308 -1.2486606098 -0.0038025366 -0.0031294305 -1.2496164933 -0.0035217564 -0.0024922230 -1.2480186588 -0.0050804418 -0.0060828672 -1.2494638506 -0.0030109562 -0.0013007684 -1.2495993313 -0.0044440944 -0.0046245318 -1.2478189643 -0.0043580467 -0.0044129411 -1.2496001524 -0.0030308064 -0.0013535826 -1.2486311946 -0.0051146716 -0.0061668470 -1.2487818951 -0.0034279324 -0.0022622400 -1.2498592484 -0.0038830270 -0.0033306176 -1.2474962797 -0.0049641858 -0.0058102035 -1.2500315313 -0.0029203565 -0.0010954082 -1.2490491686 -0.0048491025 -0.0055563723 -1.2483547063 -0.0040128662 -0.0036174718 -1.2493217325 -0.0032656939 -0.0018991426 -1.2482274614 -0.0051576074 -0.0062638651 -1.2490848526 -0.0030625054 -0.0014174430 -1.2499361075 -0.0042222658 -0.0041151305 -1.2473890124 -0.0045929135 -0.0049553452 -1.2496290917 -0.0029232862 -0.0011049977 -1.2486564348 -0.0050980533 -0.0061300793 -1.2485555816 -0.0036655666 -0.0028148029 -1.2493639890 -0.0036648179 -0.0028267462 -1.2474605998 -0.0051070672 -0.0061434663 -1.2495909917 -0.0029078241 -0.0010648138 -1.2492775703 -0.0045917570 -0.0049667512 -1.2476693234 -0.0042225111 -0.0041028901 -1.2491718656 -0.0030317384 -0.0013572768 -1.2484166730 -0.0051971655 -0.0063576335 -1.2487538937 -0.0032625328 -0.0018810679 -1.2497269793 -0.0040117921 -0.0036306394 -1.2471432095 -0.0048595865 -0.0055703396 -1.2497821353 -0.0028559086 -0.0009485874 -1.2487605937 -0.0050175686 -0.0059458073 -1.2483228906 -0.0038826785 -0.0033187163 -1.2490409923 -0.0034248581 -0.0022714467 -1.2475888268 -0.0052030058 -0.0063682423 -1.2491553646 -0.0029356441 -0.0011267380 -1.2496044908 -0.0043562527 -0.0044261227 -1.2471881538 -0.0044437469 -0.0046141872 -1.2491472546 -0.0028970632 -0.0010460949 -1.2484225666 -0.0051997146 -0.0063654693 -1.2484828910 -0.0035204721 -0.0024807718 -1.2491997133 -0.0038003981 -0.0031429357 -1.2470486622 -0.0051057949 -0.0061393607 -1.2497533440 -0.0028257240 -0.0008774580 -1.2489546318 -0.0047525027 -0.0053384765 -1.2476198854 -0.0040914649 -0.0038024075 -1.2488554543 -0.0031500105 -0.0016342709 -1.2478945910 -0.0052597405 -0.0065020821 -1.2487703244 -0.0030826364 -0.0014659680 -1.2496553922 -0.0041403260 -0.0039293817 -1.2468939016 -0.0046901749 -0.0051828290 -1.2492419099 -0.0028108392 -0.0008464150 -1.2484889502 -0.0051595666 -0.0062742486 -1.2482694775 -0.0037493927 -0.0030122101 -1.2488427897 -0.0035755553 -0.0026231471 -1.2470953277 -0.0052290442 -0.0064275016 -1.2492802553 -0.0028325071 -0.0008910156 -1.2492488491 -0.0044977623 -0.0047538745 -1.2470736380 -0.0043041091 -0.0042941926 -1.2487839307 -0.0028967403 -0.0010469615 -1.2481980550 -0.0052805462 -0.0065524585 -1.2484489043 -0.0033637200 -0.0021193142 -1.2491041790 -0.0039310201 -0.0034468886 -1.2467455608 -0.0049754295 -0.0058403647 -1.2494489346 -0.0027630634 -0.0007349292 -1.2486434012 -0.0049296257 -0.0057474000 -1.2476593189 -0.0039619701 -0.0035049155 -1.2486216457 -0.0033233122 -0.0020389685 -1.2472933094 -0.0053040894 -0.0066040763 -1.2488350500 -0.0029030548 -0.0010517959 -1.2495559051 -0.0042714324 -0.0042334872 -1.2467253501 -0.0045333026 -0.0048234603 -1.2488169576 -0.0027839654 -0.0007861202 -1.2482395369 -0.0052650325 -0.0065184340 -1.2481959967 -0.0036099215 -0.0026909537 -1.2487086803 -0.0037160693 -0.0029504371 -1.2467248776 -0.0052319958 -0.0064331118 -1.2494485372 -0.0027506147 -0.0007043540 -1.2488960708 -0.0046501681 -0.0051062621 -1.2470339591 -0.0041708607 -0.0039883245 -1.2485089238 -0.0030300175 -0.0013586892 -1.2476665902 -0.0053424022 -0.0066952996 -1.2484579048 -0.0031916884 -0.0017221621 -1.2490635399 -0.0040595811 -0.0037454851 -1.2465252869 -0.0047933657 -0.0054232983 -1.2489540480 -0.0027180412 -0.0006330098 -1.2483517174 -0.0051231740 -0.0061937179 -1.2477757005 -0.0038311274 -0.0032038546 -1.2484511782 -0.0034825107 -0.0024100737 -1.2468325910 -0.0053315153 -0.0066665977 -1.2489520562 -0.0027757451 -0.0007598330 -1.2492551937 -0.0044080619 -0.0045498712 -1.2466238266 -0.0043882847 -0.0044907676 -1.2484909669 -0.0027774719 -0.0007727790 -1.2480083474 -0.0053467383 -0.0067075050 -1.2481533351 -0.0034609272 -0.0023473223 -1.2486266104 -0.0038496184 -0.0032609721 -1.2464468820 -0.0050975971 -0.0061244839 -1.2491878037 -0.0026877243 -0.0005614793 -1.2485590570 -0.0048170708 -0.0054916398 -1.2470641815 -0.0040409212 -0.0036896205 -1.2483008613 -0.0032157543 -0.0017919601 -1.2470869450 -0.0053873054 -0.0067986413 -1.2485132903 -0.0030015521 -0.0012828880 -1.2490639396 -0.0041889049 -0.0040453690 -1.2463711054 -0.0046274902 -0.0050428769 -1.2485642342 -0.0026892183 -0.0005683456 -1.2480837061 -0.0053015778 -0.0066050744 -1.2478883515 -0.0036959758 -0.0028924755 -1.2483313012 -0.0036291914 -0.0027514664 -1.2464822147 -0.0053412240 -0.0066878082 -1.2491218211 -0.0026909350 -0.0005666431 -1.2488728232 -0.0045534184 -0.0048859892 -1.2465818567 -0.0042516374 -0.0041768752 -1.2482398998 -0.0029035014 -0.0010674807 -1.2475160830 -0.0054094336 -0.0068523554 -1.2481525529 -0.0032988177 -0.0019730791 -1.2485879375 -0.0039792622 -0.0035619705 -1.2462404561 -0.0049033523 -0.0056790107 -1.2487298258 -0.0026415945 -0.0004571644 -1.2482446385 -0.0050018047 -0.0059177172 -1.2471633936 -0.0039113743 -0.0033914469 -1.2481451847 -0.0033847406 -0.0021855804 -1.2466398462 -0.0054169047 -0.0068662683 -1.2486185650 -0.0027973398 -0.0008110422 -1.2490715759 -0.0043218608 -0.0043532444 -1.2462725589 -0.0044757310 -0.0046944475 -1.2482608456 -0.0026764078 -0.0005405011 -1.2478398650 -0.0053990508 -0.0068304117 -1.2478680722 -0.0035533578 -0.0025635457 -1.2482533497 -0.0037668219 -0.0030713478 -1.2462157841 -0.0052264707 -0.0064237750 -1.2489713659 -0.0026265397 -0.0004204996 -1.2485068905 -0.0047109987 -0.0052499414 -1.2465965029 -0.0041201296 -0.0038744418 -1.2480465955 -0.0031013276 -0.0015286271 -1.2469440462 -0.0054557141 -0.0069589614 -1.2481964989 -0.0031200420 -0.0015600767 -1.2485847866 -0.0041078849 -0.0038601964 -1.2460916176 -0.0047271216 -0.0052744982 -1.2483633334 -0.0026103718 -0.0003871054 -1.2479558329 -0.0052055780 -0.0063872919 -1.2473307404 -0.0037793278 -0.0030871944 -1.2480318617 -0.0035389207 -0.0025442460 -1.2462968324 -0.0054319823 -0.0068999582 -1.2487778046 -0.0026465678 -0.0004641165 -1.2488763287 -0.0044614969 -0.0046761962 -1.2462237051 -0.0043344448 -0.0043697347 -1.2480241500 -0.0027712410 -0.0007626023 -1.2474210860 -0.0054637877 -0.0069800559 -1.2478565311 -0.0033998383 -0.0022091739 -1.2482110505 -0.0038986402 -0.0033773312 -1.2460147369 -0.0050207417 -0.0059515300 -1.2485467790 -0.0025786859 -0.0003123828 -1.2481672460 -0.0048844153 -0.0056500700 -1.2466681946 -0.0039907698 -0.0035766430 -1.2478989185 -0.0032813306 -0.0019476885 -1.2464984200 -0.0054876876 -0.0070321731 -1.2482879005 -0.0029221702 -0.0011027783 -1.2486064779 -0.0042383236 -0.0041622692 -1.2459912684 -0.0045672142 -0.0049071404 -1.2480743567 -0.0025929310 -0.0003486986 -1.2476932019 -0.0054100987 -0.0068583538 -1.2475314326 -0.0036417691 -0.0027699533 -1.2479538679 -0.0036818661 -0.0028763828 -1.2460336732 -0.0053595985 -0.0067327579 -1.2487739248 -0.0025769110 -0.0003059894 -1.2484864471 -0.0046111389 -0.0050219251 -1.2462221043 -0.0042002250 -0.0040609740 -1.2478394483 -0.0029795138 -0.0012478825 -1.2468491662 -0.0055119123 -0.0070910114 -1.2478880940 -0.0032317838 -0.0018210049 -1.2481989651 -0.0040276391 -0.0036764237 -1.2458662462 -0.0048330182 -0.0055203390 -1.2481979155 -0.0025450117 -0.0002368225 -1.2478558470 -0.0050766450 -0.0060932359 -1.2467993057 -0.0038606772 -0.0032768858 -1.2477882428 -0.0034443918 -0.0023268799 -1.2461543357 -0.0055067562 -0.0070752027 -1.2484304998 -0.0027079118 -0.0006076075 -1.2486302010 -0.0043735080 -0.0044749970 -1.2459339517 -0.0044199877 -0.0045686404 -1.2478465033 -0.0026382836 -0.0004558641 -1.2473608287 -0.0055076165 -0.0070833723 -1.2475699345 -0.0034954446 -0.0024322435 -1.2479060801 -0.0038169989 -0.0031900230 -1.2458327498 -0.0051457368 -0.0062414397 -1.2483889119 -0.0025269407 -0.0001931833 -1.2481189169 -0.0047743735 -0.0053987144 -1.2462681875 -0.0040699537 -0.0037610392 -1.2476959819 -0.0031714267 -0.0016945075 -1.2463968302 -0.0055462088 -0.0071696951 -1.2479648488 -0.0030458678 -0.0013914015 -1.2482104242 -0.0041566762 -0.0039752888 -1.2457616777 -0.0046635562 -0.0051308356 -1.2479189284 -0.0025238755 -0.0001900291 -1.2475721917 -0.0052878372 -0.0065797755 -1.2469910182 -0.0037269364 -0.0029684783 -1.2477083804 -0.0035939633 -0.0026743420 -1.2458887808 -0.0054863726 -0.0070271935 -1.2485581892 -0.0025406127 -0.0002221186 -1.2484879707 -0.0045165889 -0.0048056774 -1.2459171194 -0.0042818682 -0.0042508341 -1.2476667892 -0.0028503849 -0.0009499666 -1.2467920876 -0.0055580685 -0.0071997922 -1.2475893062 -0.0033368226 -0.0020659364 -1.2478842600 -0.0039474632 -0.0034925202 -1.2456815636 -0.0049459208 -0.0057821942 -1.2480563903 -0.0024909121 -0.0001123586 -1.2477831450 -0.0049547136 -0.0058146608 -1.2463646130 -0.0039407049 -0.0034632269 -1.2475859002 -0.0033447187 -0.0020973871 -1.2460455359 -0.0055685719 -0.0072204648 -1.2480895302 -0.0028406193 -0.0009170468 -1.2482340615 -0.0042886123 -0.0042805751 -1.2456955734 -0.0045090250 -0.0047754188 -1.2476967350 -0.0025247003 -0.0001939140 -1.2472966540 -0.0055028228 -0.0070747869 -1.2472233576 -0.0035864577 -0.0026443160 -1.2476547727 -0.0037336127 -0.0029984420 -1.2456843567 -0.0052777547 -0.0065474886 -1.2482429774 -0.0024843915 -0.0000950242 -1.2480991313 -0.0046710074 -0.0051622604 -1.2459407123 -0.0041495724 -0.0039462078 -1.2475253448 -0.0030543420 -0.0014245047 -1.2463275888 -0.0055945684 -0.0072836699 -1.2476516473 -0.0031622915 -0.0016627214 -1.2478837553 -0.0040761905 -0.0037907093 -1.2455714640 -0.0047656065 -0.0053675599 -1.2477855832 -0.0024666766 -0.0000585633 -1.2474774381 -0.0051544640 -0.0062750636 -1.2465149299 -0.0038096062 -0.0031609423 -1.2475034506 -0.0035022903 -0.0024633797 -1.2457733012 -0.0055775658 -0.0072400116 -1.2482609923 -0.0026206928 -0.0004088608 -1.2482466540 -0.0044264515 -0.0045992440 -1.2456650246 -0.0043657564 -0.0044456962 -1.2475198807 -0.0027150854 -0.0006375789 -1.2467650329 -0.0055958927 -0.0072892577 -1.2472996804 -0.0034358802 -0.0022966600 -1.2476237642 -0.0038666623 -0.0033069463 -1.2455284097 -0.0050663275 -0.0060612811 -1.2479294576 -0.0024461184 -0.000009