<?xml version="1.0"?>
<VTKFile type="UnstructuredGrid" version="0.1" byte_order="LittleEndian">
  <UnstructuredGrid>
    <FieldData>
      <DataArray type="Float32" Name="TIME"  NumberOfTuples="1" format="ascii"> 0.9000000000 </DataArray>
      <DataArray type="Int32"   Name="STEP"  NumberOfTuples="1" format="ascii"> 90000 </DataArray>
    </FieldData>
    <Piece NumberOfPoints="2004" NumberOfCells="2004">
      <Points>
        <DataArray type="Float32" NumberOfComponents="3" format="ascii">
 0.0273416304 0.9975180632 -0.0110330597 -0.0448335336 0.9964134851 0.0256775179 0.0021604914 0.9941369194 -0.0814638157 0.0463169345 0.9941149355 0.0553927389 -0.0979415880 0.9973723919 -0.0281133220 0.0845881289 0.9953766555 -0.0672059551 -0.0342164164 0.9884176222 0.0983720697 -0.0601409432 0.9892890766 -0.1197802311 0.1186047446 0.9959116732 0.0342769077 -0.1325716513 0.9953316359 0.0411840453 0.0573685744 0.9854475883 -0.1415991416 0.0402224460 0.9819668232 0.1327351360 -0.1414345963 0.9931479673 -0.0913866385 0.1578298923 0.9967016982 -0.0461236477 -0.1024746809 0.9830056136 0.1272660958 -0.0259917820 0.9761325844 -0.1841116839 0.1344742877 0.9871133987 0.1067174100 -0.1937325626 0.9974558889 -0.0040872623 0.1326606613 0.9844623168 -0.1463983059 -0.0140737356 0.9690458460 0.1833478360 -0.1331164237 0.9803739120 -0.1668510880 0.2043693761 0.9968549686 0.0177659874 -0.1799930593 0.9863085182 0.1100110812 0.0434306926 0.9661084075 -0.2194895845 0.1040767452 0.9702552144 0.1796491308 -0.2226018237 0.9942006756 -0.0817829568 0.2078622628 0.9908378365 -0.1081709483 -0.0944954301 0.9632276377 0.2018657202 -0.0829961967 0.9619983436 -0.2328699605 0.2130520270 0.9876088945 0.1041559223 -0.2482666655 0.9943297285 0.0520958276 0.1311084976 0.9658411002 -0.2199925622 0.0369991266 0.9518344663 0.2348839497 -0.2096947230 0.9793540564 -0.1716126588 0.2644830073 0.9972127032 -0.0323433139 -0.1857862756 0.9688410437 0.1833706824 -0.0019513667 0.9465969845 -0.2747842569 0.1785451179 0.9666961084 0.1919319032 -0.2886241622 0.9970815417 -0.0386639523 0.2222016123 0.9764828080 -0.1816984488 -0.0550173325 0.9411318521 0.2612780820 -0.1549226339 0.9552072653 -0.2527980770 0.2845733448 0.9926697844 0.0692390812 -0.2724533927 0.9833177447 0.1250568898 0.0981353735 0.9425669697 -0.2842487952 0.1058413294 0.9409459778 0.2623519459 -0.2856615035 0.9848703697 -0.1459295654 0.2996392043 0.9913314054 -0.1035512492 -0.1603179547 0.9446173412 0.2524771824 -0.0671467296 0.9316251796 -0.3098850672 0.2574699895 0.9713736121 0.1762902024 -0.3353150854 0.9957327989 0.0287416876 0.2056429149 0.9535183547 -0.2559414294 0.0059359693 0.9216506168 0.3038488973 -0.2351687401 0.9572347110 -0.2474498981 0.3425305518 0.9961193427 0.0079643450 -0.2665791719 0.9624071868 0.2036835757 0.0421278374 0.9194511058 -0.3346471916 0.1858834811 0.9389886214 0.2672455148 -0.3538894286 0.9916166307 -0.0930975640 0.3064003213 0.9752215564 -0.1856123043 -0.1101963612 0.9179891232 0.3106389104 -0.1457169684 0.9247345526 -0.3247630484 0.3342904433 0.9809935045 0.1340402960 -0.3561486530 0.9840680004 0.1118336399 0.1627193365 0.9252680091 -0.3224092814 0.0820383438 0.9090624775 0.3283155890 -0.3181220122 0.9670400617 -0.2170087546 0.3768775606 0.9866740656 -0.0732175371 -0.2326702200 0.9334170391 0.2781793210 -0.0306939517 0.9013132103 -0.3686710246 0.2722668652 0.9466249186 0.2491317235 -0.4000384114 0.9795264545 -0.0166635239 0.2838989578 0.9487077156 -0.2681100507 -0.0414487629 0.8941441786 0.3540289789 -0.2332359709 0.9278385941 -0.3186580922 0.3930162906 0.9711037075 0.0646940675 -0.3478441045 0.9616220831 0.2006842851 0.0990187028 0.8969442305 -0.3757076781 0.1689760138 0.9062851456 0.3337220521 -0.3913135250 0.9667181536 -0.1586633315 0.3827087145 0.9650940985 -0.1648066349 -0.1753995292 0.9011705063 0.3414518859 -0.1158482968 0.8919044507 -0.3850689044 0.3578758874 0.9571380276 0.2053179012 -0.4134199883 0.9413498725 0.0727276061 0.2350822320 0.9152034621 -0.3421266007 0.0410777878 0.8775934759 0.3809381670 -0.3254709161 0.9402388954 -0.2896758128 0.4116942059 0.9138545787 -0.0228821999 -0.3107070253 0.9296959564 0.2852742179 0.0198293007 0.8737265236 -0.4132841465 0.2634611924 0.9146074963 0.3185815373 -0.4199321529 0.8999097739 -0.0732172497 0.3627638020 0.9434891649 -0.2592847079 -0.1003901003 0.8714152804 0.3897304356 -0.2102649924 0.8935665380 -0.3826786839 0.4054685937 0.9024447401 0.1255211949 -0.4075195249 0.9164739113 0.1682007953 0.1655174135 0.8806312868 -0.4020859096 0.1340749801 0.8715525909 0.3904564106 -0.3996920349 0.9192067176 -0.2262073926 0.4111320929 0.8690532601 -0.1149603205 -0.2486786643 0.8916643865 0.3573316808 -0.0709491563 0.8596571096 -0.4341987599 0.3582993778 0.9242224630 0.2775044419 -0.4235275747 0.8335672507 0.0172697455 0.3138501520 0.9120424032 -0.3459658599 -0.0123757634 0.8490841826 0.4217117329 -0.3112309400 0.9065590445 -0.3592965953 0.4145551239 0.8173582649 0.0329364144 -0.3843075335 0.9109322257 0.2688341708 0.0808728372 0.8508902775 -0.4457352900 0.2353961256 0.8778734463 0.3812656418 -0.4190198510 0.8205893314 -0.1315186874 0.4018473133 0.8575997509 -0.2129958608 -0.1684241763 0.8549502366 0.4130876826 -0.1709722720 0.8574309809 -0.4377341802 0.4015644995 0.8409586800 0.1875984654 -0.4197753128 0.8013819784 0.1101040857 0.2400815273 0.8715324265 -0.4156697246 0.0856188908 0.8376977456 0.4370810062 -0.3922258211 0.8777418282 -0.2952089400 0.4150760940 0.7658776387 -0.0582749806 -0.3284967071 0.8882927424 0.3589403407 -0.0147560386 0.8304603358 -0.4727495535 0.3404942603 0.8903696506 0.3481605488 -0.4239224346 0.7484980742 -0.0391686227 0.3794573913 0.8732354331 -0.3198227378 -0.0754757547 0.8254612661 0.4517869744 -0.2788185386 0.8683705074 -0.4222394345 0.4121466472 0.7483745516 0.0899635795 -0.4090835102 0.8019985356 0.2102786676 0.1504895995 0.8342446096 -0.4673140091 0.1921211397 0.8394996077 0.4351800963 -0.4135553297 0.7672693911 -0.1921765294 0.4099910096 0.7468391142 -0.1522650649 -0.2443837078 0.8457605847 0.4252182379 -0.1192199575 0.8223304853 -0.4831783622 0.3920737310 0.8024613157 0.2536859759 -0.4232156309 0.7099322510 0.0519452360 0.3210234201 0.8674312950 -0.4158159358 0.0268336027 0.8071188988 0.4738966863 -0.3753539025 0.8522876153 -0.3679338220 0.4156316255 0.6914715825 -0.0022084311 -0.3864586809 0.8313268383 0.3222411188 0.0503230698 0.8061636356 -0.5015062780 0.3057823522 0.8539136892 0.4131787669 -0.4218763010 0.6894847263 -0.0961340488 0.3978651346 0.7578095431 -0.2546156720 -0.1466406117 0.8080955684 0.4720872421 -0.2318575303 0.8283585725 -0.4762328460 0.4071838900 0.7027182651 0.1492862688 -0.4169609715 0.7002496100 0.1470253783 0.2278216346 0.8247941595 -0.4787612925 0.1372350062 0.8024205488 0.4796654554 -0.4047675698 0.7353887331 -0.2567988575 0.4139027834 0.6641691682 -0.0938501526 -0.3265164199 0.8408290910 0.4245147773 -0.0579487172 0.7906154120 -0.5192215124 0.3774474364 0.7836473596 0.3255990542 -0.4243026345 0.6439137765 -0.0047542401 0.3737026419 0.7974464222 -0.3706315288 -0.0401539572 0.7815838363 0.5015742338 -0.3461288194 0.8338195304 -0.4414507008 0.4141585288 0.6389835583 0.0541107231 -0.4032141888 0.7182324439 0.2518441525 0.1229681692 0.7880756900 -0.5212257809 0.2557952954 0.8128277566 0.4679919682 -0.4176193879 0.6498843124 -0.1548723519 0.4064358164 0.6630017940 -0.1903446443 -0.2252590429 0.7979616989 0.4831910405 -0.1739303416 0.7896784862 -0.5207019744 0.3993710801 0.6749371917 0.2122921448 -0.4215637587 0.6246510356 0.0872632587 0.3112702236 0.8193102562 -0.4779926037 0.0735346113 0.7689579401 0.5149834056 -0.3918080392 0.7206271418 -0.3269691778 0.4155884348 0.6035810227 -0.0372147054 -0.3766873211 0.7641495346 0.3721481972 0.0108930032 0.7639865862 -0.5465135783 0.3553939761 0.7794842339 0.4039325004 -0.4234281188 0.5966280574 -0.0611898939 0.3908805112 0.6878714455 -0.2976303235 -0.1142110552 0.7623256819 0.5208330987 -0.2978124673 0.8029823374 -0.5034713520 0.4105973598 0.6029724834 0.1119122351 -0.4128055443 0.6294176357 0.1853645725 0.2027611891 0.7771346068 -0.5324219788 0.1948846114 0.7719625122 0.5124289567 -0.4107439937 0.6254534757 -0.2167554635 0.4118130617 0.5919527905 -0.1300392868 -0.3101361375 0.7923314243 0.4830203652 -0.1078170218 0.7547360885 -0.5560323247 0.3878326708 0.6617288092 0.2804913780 -0.4238821895 0.5685977993 0.0298337707 0.3614093771 0.7400141921 -0.4216597854 0.0028623263 0.7407442391 0.5418477563 -0.3729637174 0.7201082472 -0.4041425914 0.4153091168 0.5594339900 0.0188759527 -0.3952409627 0.6588984289 0.2956472158 0.0863049150 0.7436078078 -0.5657860724 0.3189392849 0.7762899095 0.4820919338 -0.4205364025 0.5637124336 -0.1186205697 0.4016666471 0.6028315168 -0.2299108649 -0.1950683877 0.7502265564 0.5321972364 -0.2344412622 0.7618008306 -0.5496033467 0.4045916745 0.5801084356 0.1725131180 -0.4190310875 0.5623565082 0.1235177132 0.2890627290 0.7715395012 -0.5334870017 0.1263272340 0.7349711406 0.5476116865 -0.4004799254 0.6136911421 -0.2832727624 0.4147885605 0.5386177441 -0.0723788214 -0.3623158179 0.7147672890 0.4240977165 -0.0353097654 0.7251175361 -0.5830245622 0.3711163135 0.6611046941 0.3554419098 -0.4242012325 0.5273080760 -0.0265672191 0.3818732844 0.6375591732 -0.3430722284 -0.0738720881 0.7188630322 0.5610557292 -0.3449772873 0.7301719879 -0.4883604873 0.4130587453 0.5280924172 0.0756554073 -0.4073811484 0.5773827208 0.2255141962 0.1681302306 0.7303006087 -0.5776007180 0.2580558938 0.7457525495 0.5371550672 -0.4153408686 0.5424552475 -0.1783545402 0.4088091785 0.5380579881 -0.1672016253 -0.2826340461 0.7444929812 0.5347077525 -0.1633803371 0.7230806364 -0.5853310426 0.3954816628 0.5683984863 0.2373499447 -0.4226997082 0.5116289379 0.0648523785 0.3449900137 0.6979760358 -0.4753295655 0.0519435812 0.7034978940 0.5745373976 -0.3855714929 0.6131263017 -0.3560026377 0.4157085711 0.4988098984 -0.0160542550 -0.3851056964 0.6154469021 0.3422113759 0.0427395356 0.7018350900 -0.6025548024 0.3468870333 0.6714574669 0.4383548730 -0.4225738753 0.49
[...]
      <PointData Scalars="material ID">
        <DataArray type="Int32" Name="material ID" format="ascii">
 0 0 0 0 0 0 0 0 0 0 0 0 0 0 0 0 0 0 0 0 0 0 0 0 0 0 0 0 0 0 0 0 0 0 0 0 0 0 0 0 0 0 0 0 0 0 0 0 0 0 0 0 0 0 0 0 0 0 0 0 0 0 0 0 0 0 0 0 0 0 0 0 0 0 0 0 0 0 0 0 0 0 0 0 0 0 0 0 0 0 0 0 0 0 0 0 0 0 0 0 0 0 0 0 0 0 0 0 0 0 0 0 0 0 0 0 0 0 0 0 0 0 0 0 0 0 0 0 0 0 0 0 0 0 0 0 0 0 0 0 0 0 0 0 0 0 0 0 0 0 0 0 0 0 0 0 0 0 0 0 0 0 0 0 0 0 0 0 0 0 0 0 0 0 0 0 0 0 0 0 0 0 0 0 0 0 0 0 0 0 0 0 0 0 0 0 0 0 0 0 0 0 0 0 0 0 0 0 0 0 0 0 0 0 0 0 0 0 0 0 0 0 0 0 0 0 0 0 0 0 0 0 0 0 0 0 0 0 0 0 0 0 0 0 0 0 0 0 0 0 0 0 0 0 0 0 0 0 0 0 0 0 0 0 0 0 0 0 0 0 0 0 0 0 0 0 0 0 0 0 0 0 0 0 0 0 0 0 0 0 0 0 0 0 0 0 0 0 0 0 0 0 0 0 0 0 0 0 0 0 0 0 0 0 0 0 0 0 0 0 0 0 0 0 0 0 0 0 0 0 0 0 0 0 0 0 0 0 0 0 0 0 0 0 0 0 0 0 0 0 0 0 0 0 0 0 0 0 0 0 0 0 0 0 0 0 0 0 0 0 0 0 0 0 0 0 0 0 0 0 0 0 0 0 0 0 0 0 0 0 0 0 0 0 0 0 0 0 0 0 0 0 0 0 0 0 0 0 0 0 0 0 0 0 0 0 0 0 0 0 0 0 0 0 0 0 0 0 0 0 0 0 0 0 0 0 0 0 0 0 0 0 0 0 0 0 0 0 0 0 0 0 0 0 0 0 0 0 0 0 0 0 0 0 0 0 0 0 0 0 0 0 0 0 0 0 0 0 0 0 0 0 0 0 0 0 0 0 0 0 0 0 0 0 0 0 0 0 0 0 0 0 0 0 0 0 0 0 0 0 0 0 0 0 0 0 0 0 0 0 0 0 0 0 0 0 0 0 0 0 0 0 0 0 0 0 0 0 0 0 0 0 0 0 0 0 0 0 0 0 0 0 0 0 0 0 0 0 0 0 0 0 0 0 0 0 0 0 0 0 0 0 0 0 0 0 0 0 0 0 0 0 0 0 0 0 0 0 0 0 0 0 0 0 0 0 0 0 0 0 0 0 0 0 0 0 0 0 0 0 0 0 0 0 0 0 0 0 0 0 0 0 0 0 0 0 0 0 0 0 0 0 0 0 0 0 0 0 0 0 0 0 0 0 0 0 0 0 0 0 0 0 0 0 0 0 0 0 0 0 0 0 0 0 0 0 0 0 0 0 0 0 0 0 0 0 0 0 0 0 0 0 0 0 0 0 0 0 0 0 0 0 0 0 0 0 0 0 0 0 0 0 0 0 0 0 0 0 0 0 0 0 0 0 0 0 0 0 0 0 0 0 0 0 0 0 0 0 0 0 0 0 0 0 0 0 0 0 0 0 0 0 0 0 0 0 0 0 0 0 0 0 0 0 0 0 0 0 0 0 0 0 0 0 0 0 0 0 0 0 0 0 0 0 0 0 0 0 0 0 0 0 0 0 0 0 0 0 0 0 0 0 0 0 0 0 0 0 0 0 0 0 0 0 0 0 0 0 0 0 0 0 0 0 0 0 0 0 0 0 0 0 0 0 0 0 0 0 0 0 0 0 0 0 0 0 0 0 0 0 0 0 0 0 0 0 0 0 0 0 0 0 0 0 0 0 0 0 0 0 0 0 0 0 0 0 0 0 0 0 0 0 0 0 0 0 0 0 0 0 0 0 0 0 0 0 0 0 0 0 0 0 0 0 0 0 0 0 0 0 0 0 0 0 0 0 0 0 0 0 0 0 0 0 0 0 0 0 0 0 0 0 0 0 0 0 0 0 0 0 0 0 0 0 0 0 0 0 0 0 0 0 0 0 0 0 0 0 0 0 0 0 0 0 0 0 0 0 0 0 0 0 0 0 0 0 0 0 0 0 0 0 0 0 0 0 0 0 0 0 0 0 0 0 0 0 0 0 0 0 0 0 0 0 0 0 0 0 0 0 0 0 0 0 0 0 0 0 0 0 0 0 0 0 0 0 0 0 0 0 0 0 0 0 0 0 0 0 0 0 0 0 0 0 0 0 0 0 0 0 0 0 0 0 0 0 0 0 0 0 0 0 0 0 0 0 0 0 0 0 0 0 0 0 0 0 0 0 0 0 0 0 0 0 0 0 0 0 0 0 0 0 0 0 0 0 0 0 0 0 0 0 0 0 0 0 0 0 0 0 0 0 0 0 0 0 0 0 0 0 0 0 0 0 0 0 0 0 0 0 0 0 0 0 0 0 0 0 0 0 0 0 0 0 0 0 0 0 0 0 0 0 0 0 0 0 0 0 0 0 0 0 0 0 0 0 0 0 0 0 0 0 0 0 0 0 0 0 0 0 0 0 0 0 0 0 0 0 0 0 0 0 0 0 0 0 0 0 0 0 0 0 0 0 0 0 0 0 0 0 0 0 0 0 0 0 0 0 0 0 0 0 0 0 0 0 0 0 0 0 0 0 0 0 0 0 0 0 0 0 0 0 0 0 0 0 0 0 0 0 0 0 0 0 0 0 0 0 0 0 0 0 0 0 0 0 0 0 0 0 0 0 0 0 0 0 0 0 0 0 0 0 0 0 0 0 0 0 0 0 0 0 0 0 0 0 0 0 0 0 0 0 0 0 0 0 0 0 0 0 0 0 0 0 0 0 0 0 0 0 0 0 0 0 0 0 0 0 0 0 0 0 0 0 0 0 0 0 0 0 0 0 0 0 0 0 0 0 0 0 0 0 0 0 0 0 0 0 0 0 0 0 0 0 0 0 0 0 0 0 0 0 0 0 0 0 0 0 0 0 0 0 0 0 0 0 0 0 0 0 0 0 0 0 0 0 0 0 0 0 0 0 0 0 0 0 0 0 0 0 0 0 0 0 0 0 0 0 0 0 0 0 0 0 0 0 0 0 0 0 0 0 0 0 0 0 0 0 0 0 0 0 0 0 0 0 0 0 0 0 0 0 0 0 0 0 0 0 0 0 0 0 0 0 0 0 0 0 0 0 0 0 0 0 0 0 0 0 0 0 0 0 0 0 0 0 0 0 0 0 0 0 0 0 0 0 0 0 0 0 0 0 0 0 0 0 0 0 0 0 0 0 0 0 0 0 0 0 0 0 0 0 0 0 0 0 0 0 0 0 0 0 0 0 0 0 0 0 0 0 0 0 0 0 0 0 0 0 0 0 0 0 0 0 0 0 0 0 0 0 0 0 0 0 0 0 0 0 0 0 0 0 0 0 0 0 0 0 0 0 0 0 0 0 0 0 0 0 0 0 0 0 0 0 0 0 0 0 0 0 0 0 0 0 0 0 0 0 0 0 0 0 0 0 0 0 0 0 0 0 0 0 0 0 0 0 0 0 0 0 0 0 0 0 0 0 0 0 0 0 0 0 0 0 0 0 0 0 0 0 0 0 0 0 0 0 0 0 0 0 0 0 0 0 0 0 0 0 0 0 0 0 0 0 0 0 0 0 0 0 0 0 0 0 0 0 0 0 0 0 0 0 0 0 0 0 0 0 0 0 0 0 0 0 0 0 0 0 0 0 0 0 0 0 0 0 0 0 0 0 0 0 0 0 0 0 0 0 0 0 0 0 0 0 0 0 0 0 0 0 0 0 0 0 0 0 0 0 0 0 0 0 0 0 0 0 0 0 0 0 0 0 0 0 0 0 0 0 0 0 0 0 0 0 0 0 0 0 0 0 0 0 0 0 0 0 0 0 0 0 0 0 0 0 0 0 0 0 0 0 0 0 0 0 0 0 0 0 0 0 0 0 0 0 0 0 0 0 0 0 0 0 0 0 0 0 0 0 0 0 0 0 0 0 0 0 0 0 0 0 0 0 0 0 0 0 0 0 0 0 0 0 0 0 0 0 0 0 0 0 0 0 0 0 0 0 0 0 0 0 0 0 0 0 0 0 0 0 0 0 0 0 0 0 0 0 0 0 0 0 0 0 0 0 0 0 0 0 0 0 0 0 0 0 0 0 0 0 0 0 0 0 0 0 0 0 0 0 0 0 0 0 0 0 0 0 0 0 0 0 0 0 0 0 0 0 0 0 0 0 0 0 0 0 0 0 0 0 0 0 0 0 0 0 0 0 0 0 0 0 0 0 0 0 0 0 0 0 0 0 0 0 0 0 0 0 0 0 0 0 0 0 0 0 0 0 0 0 0 0 0 0 0 0 0 0 0 0 0 0 0 0 0 0 0 0 0 0 0 0 0 0 0 0
        </DataArray>
        <DataArray type="Float32" Name="velocity" NumberOfComponents="3" format="ascii">
 -0.0101934933 -0.0034967710 -0.5307331288 -0.0098223173 -0.0033949340 -0.5300003108 -0.0109052544 -0.0037027213 -0.5304687656 -0.0095217798 -0.0033028401 -0.5309150761 -0.0103661470 -0.0035544151 -0.5294662271 -0.0107612028 -0.0036560336 -0.5313056172 -0.0090869368 -0.0031833571 -0.5300844420 -0.0112922791 -0.0038179040 -0.5298249010 -0.0097353543 -0.0033594286 -0.5316510409 -0.0096654931 -0.0033556166 -0.5291102339 -0.0115125967 -0.0038736108 -0.5310016519 -0.0087391463 -0.0030788592 -0.5308182250 -0.0110054996 -0.0037407842 -0.5290143041 -0.0105481688 -0.0035901412 -0.5320498570 -0.0087944995 -0.0031039434 -0.5293787236 -0.0119417512 -0.0040023272 -0.5301319447 -0.0090024901 -0.0031482494 -0.5317859406 -0.0101232747 -0.0034909022 -0.5284981252 -0.0115610475 -0.0038826696 -0.5317599159 -0.0082266714 -0.0029355364 -0.5302318643 -0.0117675391 -0.0039591735 -0.5290613337 -0.0099023230 -0.0034017873 -0.5325207659 -0.0089691426 -0.0031590089 -0.5286046777 -0.0122987363 -0.0041004758 -0.5308046508 -0.0082641395 -0.0029386340 -0.5314297475 -0.0109084847 -0.0037181668 -0.5281968444 -0.0111750217 -0.0037669118 -0.5325386192 -0.0080390996 -0.0028870102 -0.5294020082 -0.0124337321 -0.0041474602 -0.5295146869 -0.0090284160 -0.0031506043 -0.5325817148 -0.0095551219 -0.0033314348 -0.5279377747 -0.0123038036 -0.0040962710 -0.5316902040 -0.0077045847 -0.0027827279 -0.5306982250 -0.0118156076 -0.0039779340 -0.5282842504 -0.0104088974 -0.0035432739 -0.5331294881 -0.0082264273 -0.0029465628 -0.5284954404 -0.0128564458 -0.0042638204 -0.5302892830 -0.0081397439 -0.0028981903 -0.5321722178 -0.0104727838 -0.0035973412 -0.5275377868 -0.0119173786 -0.0039792929 -0.5326419299 -0.0074370769 -0.0027121013 -0.5297369883 -0.0126347453 -0.0042099192 -0.5287678864 -0.0093817148 -0.0032472797 -0.5333194007 -0.0088168524 -0.0031213331 -0.5276613264 -0.0129518618 -0.0042848120 -0.5312893614 -0.0074262093 -0.0026985945 -0.5313625578 -0.0115563354 -0.0039083334 -0.5275323108 -0.0111283534 -0.0037475810 -0.5334678176 -0.0075262697 -0.0027444356 -0.5286826235 -0.0132103102 -0.0043698615 -0.5295867937 -0.0082981669 -0.0029384693 -0.5329836334 -0.0097912979 -0.0034048098 -0.5270618789 -0.0126664121 -0.0041957457 -0.5324079181 -0.0070054731 -0.0025846634 -0.5302966447 -0.0125808119 -0.0041995878 -0.5279625660 -0.0100013595 -0.0034212972 -0.5339152933 -0.0080206700 -0.0028928531 -0.5276600458 -0.0134598423 -0.0044346387 -0.5306561248 -0.0073766141 -0.0026792272 -0.5321660198 -0.0110226963 -0.0037594723 -0.5268621709 -0.0119568620 -0.0039852080 -0.5334894297 -0.0069365968 -0.0025724673 -0.5291120491 -0.0133602655 -0.0044180990 -0.5287725427 -0.0087258896 -0.0030560760 -0.5337881137 -0.0089505738 -0.0031651012 -0.5268174336 -0.0133365059 -0.0043913456 -0.5318920508 -0.0067573279 -0.0025087679 -0.5310294393 -0.0122737180 -0.0041166351 -0.5271524431 -0.0108214112 -0.0036545916 -0.5342351034 -0.0072657251 -0.0026745462 -0.5279187269 -0.0138026151 -0.0045380480 -0.5298673555 -0.0075602184 -0.0027261960 -0.5330614166 -0.0102492490 -0.0035407140 -0.5263605799 -0.0127891131 -0.0042259922 -0.5331850469 -0.0064964293 -0.0024421492 -0.5297378381 -0.0132987514 -0.0044060419 -0.5278968244 -0.0094262668 -0.0032534597 -0.5343530782 -0.0080509389 -0.0029068040 -0.5268362668 -0.0138734659 -0.0045500823 -0.5311659368 -0.0067024949 -0.0024874673 -0.5319002288 -0.0116838875 -0.0039520999 -0.5264116215 -0.0117458848 -0.0039199201 -0.5342314455 -0.0066240242 -0.0024872893 -0.5284041232 -0.0139677722 -0.0045911202 -0.5289792410 -0.0080038084 -0.0028477720 -0.5339573312 -0.0093431343 -0.0032822497 -0.5261145540 -0.0135351767 -0.0044438720 -0.5325943644 -0.0062233371 -0.0023587529 -0.5305240786 -0.0130065727 -0.0043279211 -0.5270004019 -0.0103078708 -0.0035063168 -0.5343758090 -0.0071937629 -0.0026590047 -0.5271190634 -0.0142518238 -0.0046642094 -0.5302980609 -0.0068560869 -0.0025252870 -0.5328795163 -0.0108158033 -0.0037060647 -0.5259285030 -0.0126995612 -0.0041952948 -0.5339671466 -0.0061340576 -0.0023423848 -0.5290760666 -0.0139437171 -0.0045902854 -0.5280296112 -0.0088069344 -0.0030761923 -0.5342797741 -0.0083763956 -0.0030048955 -0.5261020348 -0.0141390677 -0.0046223113 -0.5317908427 -0.0061267276 -0.0023251323 -0.5314466556 -0.0123636163 -0.0041485903 -0.5261890904 -0.0112357877 -0.0037734769 -0.5342401554 -0.0064628824 -0.0024459549 -0.5276357719 -0.0144623393 -0.0047307482 -0.5293395718 -0.0072719534 -0.0026383274 -0.5338661223 -0.0098967910 -0.0034437891 -0.5256996937 -0.0135737833 -0.0044499215 -0.5333814532 -0.0058093183 -0.0022439195 -0.5299010134 -0.0137081885 -0.0045289750 -0.5270466456 -0.0097373707 -0.0033441990 -0.5341247885 -0.0073587421 -0.0027114528 -0.5263206064 -0.0145783949 -0.0047544086 -0.5308488964 -0.0062200448 -0.0023452499 -0.5324892410 -0.0114000443 -0.0038751416 -0.5257076122 -0.0122260821 -0.0040584834 -0.5341130690 -0.0058968772 -0.0022790191 -0.5283405489 -0.0144979348 -0.0047474662 -0.5283219872 -0.0081754277 -0.0028963548 -0.5340619334 -0.0089562562 -0.0031742290 -0.5256442537 -0.0142757977 -0.0046569018 -0.5325182097 -0.0056532159 -0.0021930020 -0.5308586017 -0.0130584694 -0.0043482854 -0.5261442738 -0.0106560945 -0.0036087748 -0.5339807068 -0.0064464027 -0.0024464443 -0.5268191157 -0.0148501604 -0.0048389562 -0.5298229225 -0.0065555090 -0.0024345003 -0.5335879227 -0.0104618270 -0.0036075455 -0.5254489116 -0.0133069974 -0.0043698406 -0.5339320909 -0.0055037638 -0.0021607458 -0.5291946087 -0.0143420062 -0.0047094819 -0.5272635132 -0.0091564308 -0.0031789156 -0.5339003157 -0.0079436383 -0.0028829262 -0.5257541251 -0.0147954573 -0.0048125125 -0.5315043573 -0.0056725484 -0.0021916366 -0.5319404526 -0.0120097856 -0.0040507604 -0.5256081685 -0.0116050037 -0.0038817738 -0.5338740702 -0.0057736566 -0.0022487347 -0.5275460198 -0.0149550593 -0.0048759591 -0.5287433191 -0.0075048668 -0.0027052443 -0.5338543088 -0.0095382722 -0.0033431734 -0.5253441750 -0.0142770108 -0.0046520971 -0.5333245479 -0.0052790734 -0.0020899951 -0.5301756344 -0.0137919957 -0.0045581744 -0.5262409867 -0.0100845151 -0.0034460866 -0.5337704664 -0.0068137125 -0.0025566552 -0.5260679209 -0.0151392905 -0.0049181769 -0.5304103165 -0.0058958895 -0.0022481211 -0.5331312617 -0.0110338741 -0.0037726733 -0.5252983947 -0.0126403673 -0.0041794821 -0.5337833164 -0.0052974280 -0.0021064509 -0.5284248294 -0.0148852369 -0.0048630862 -0.5276221618 -0.0085537926 -0.0030071377 -0.5337176961 -0.0085764883 -0.0030669365 -0.5253793130 -0.0149105666 -0.0048407260 -0.5322586850 -0.0052204538 -0.0020661277 -0.5312780441 -0.0126609886 -0.0042376657 -0.5256045158 -0.0110091510 -0.0037120562 -0.5336737838 -0.0057804493 -0.0022560813 -0.5267014395 -0.0153173681 -0.0049765642 -0.5292706985 -0.0067766873 -0.0024975653 -0.5336518723 -0.0101071783 -0.0035077320 -0.5251416632 -0.0138157239 -0.0045176115 -0.5336540483 -0.0049976335 -0.0020140284 -0.5294243833 -0.0145339795 -0.0047695631 -0.5264828440 -0.0095117981 -0.0032827968 -0.5336033042 -0.0075180445 -0.0027619632 -0.5255704474 -0.0153374650 -0.0049706915 -0.5310922064 -0.0053391326 -0.0020923341 -0.5325067535 -0.0116250973 -0.0039428014 -0.5252265445 -0.0119845315 -0.0039924745 -0.5335949142 -0.0051845259 -0.0020793169 -0.5276006823 -0.0153322734 -0.0049883515 -0.5280955304 -0.0079150760 -0.0028248588 -0.5335581225 -0.0091757356 -0.0032406071 -0.5251134680 -0.0149024417 -0.0048331052 -0.5330863517 -0.0048612655 -0.0019677833 -0.5305370245 -0.0133693817 -0.0044403966 -0.5256926985 -0.0104327133 -0.0035476446 -0.5335150543 -0.0063048658 -0.0024112407 -0.5259718137 -0.0155915414 -0.0050512928 -0.5298893628 -0.0059845512 -0.0022717402 -0.5334168580 -0.0106746276 -0.0036713985 -0.5250133250 -0.0130706813 -0.0043047212 -0.5335098150 -0.0048017029 -0.0019629414 -0.5286198764 -0.0151589497 -0.0049463673 -0.5268818101 -0.0089251604 -0.0031153413 -0.5334628345 -0.0081843444 -0.0029554438 -0.5252158323 -0.0154499398 -0.0049980176 -0.5318670877 -0.0048872823 -0.0019673547 -0.5317724594 -0.0122490910 -0.0041218837 -0.5252251721 -0.0113703192 -0.0038171779 -0.5334431552 -0.0051858875 -0.0020852951 -0.5267263321 -0.0156871681 -0.0050865759 -0.5286624954 -0.0072248016 -0.0026277543 -0.5334031633 -0.0097526652 -0.0034073631 -0.5249274175 -0.0143278547 -0.0046664415 -0.5333631624 -0.0045878731 -0.0018944138 -0.5297407539 -0.0141494887 -0.0046630637 -0.5258816891 -0.0098628450 -0.0033849405 -0.5333841576 -0.0070714095 -0.0026343730 -0.5254789169 -0.0157850492 -0.0051023318 -0.5305925764 -0.0051942367 -0.0020473502 -0.5330390732 -0.0112530639 -0.0038378214 -0.5249470671 -0.0123806166 -0.0041075664 -0.5333721456 -0.0046860421 -0.0019351968 -0.5277673952 -0.0156226345 -0.0050761051 -0.5274029552 -0.0083110734 -0.0029399227 -0.5333357935 -0.0088052177 -0.0031352672 -0.5249583506 -0.0154603446 -0.0049955322 -0.5327232720 -0.0045292330 -0.0018697164 -0.5309721037 -0.0129207497 -0.0043141911 -0.5252948077 -0.0107839882 -0.0036497094 -0.5333185063 -0.0057765217 -0.0022596038 -0.5259738335 -0.0159581174 -0.0051601980 -0.5293095410 -0.0064670917 -0.0024113984 -0.5332323682 -0.0103201514 -0.0035710061 -0.5248044085 -0.0135268001 -0.0044371326 -0.5332728028 -0.0043922875 -0.0018436474 -0.5289015725 -0.0150014915 -0.0049055767 -0.5261937974 -0.0092868409 -0.0032203655 -0.5332704851 -0.0077751133 -0.0028386171 -0.5251197109 -0.0159036230 -0.0051313209 -0.5313811377 -0.0046356347 -0.0018915420 -0.5323350168 -0.0118555371 -0.0040107774 -0.5249379201 -0.0117425090 -0.0039251820 -0.5332564372 -0.0046602931 -0.0019335704 -0.5268655668 -0.0159813018 -0.0051751626 -0.5280089756 -0.0076548861 -0.0027524159 -0.5332097298 -0.0093949844 -0.0033056957 -0.5247741012 -0.0148676830 -0.0048232013 -0.5330752252 -0.0042550097 -0.0017964086 -0.5301288590 -0.0136559344 -0.0045242215 -0.5254438773 -0.0102120356 -0.0034862492 -0.5332123218 -0.0065978888 -0.0024986330 -0.5254553182 -0.0161540431 -0.0052118143 -0.5300309921 -0.0056295993 -0.0021724285 -0.5330174701 -0.0108907048 -0.0037351881 -0.5247348186 -0.0127968544 -0.0042282481 -0.5331796915 -0.0042681488 -0.0018136404 -0.5280223873 -0.0157863188 -0.0051277347 -0.5266744258 -0.0086917033 -0.0030502464 -0.5331651198 -0.0084231346 -0.0030262697 -0.5248562349 -0.0159437532 -0.0051372328 -0.5322581728 -0.0042649496 -0.0017906596 -0.5314748685 -0.0124961842 -0.0041943180 -0.5249867443 -0.0111410742 -0.0037532148 -0.5331574806 -0.0052190367 -0.0020990937 -0.5260557152 -0.0162559002 -0.0052496497 -0.5286845302 -0.0069408234 -0.0025483856 -0.5330702855 -0.0099672179 -0.0034707214 -0.5246479181 -0.0140126853 -0.0045779985 -0.5330495357 -0.0040546891 -0.0017445131 -0.5292537230 -0.0144692992 -0.0047560714 -0.5256894309 -0.0096416586 -0.0033231677 -0.5331176403 -0.0073447549 -0.0027153971 -0.5250752567 -0.0162822012 -0.0052434957 -0.5308286469 -0.0047303120 -0.0019163787 -0.5327002125 -0.0114770084 -0.0039035765 -0.5247142718 -0.0121289003 -0.0040371006 -0.5330949177 -0.0042146442 -0.0018041906 -0.5270983671 -0.0162143429 -0.0052464828 -0.5273138387 -0.0080635586 -0.0028706587 -0.5330591791 -0.0090308813 -0.0032019030 -0.5246649590 -0.0154370043 -0.0049885286 -0.5327710671 -0.0039842945 -0.0017158339 -0.5305803051 -0.0131904084 -0.0043928210 -0.5251002341 -0.0105621246 -0.0035876247 -0.5330703776 -0.0060937925 -0.0023537459 -0.5254900152 -0.0164578779 -0.0053028882 -0.5294239205 -0.0061533029 -0.0023234848 -0.5328979059 -0.0105346888 -0.0036340684 -0.5245705615 -0.0132369279 -0.0043556830 -0.5330008675 -0.0039200907 -0.0017116734 -0.5283481057 -0.0153661017 -0.0050110762 -0.5260586276 -0.0090601505 -0.0031568583 -0.5330281843 -0.0080258550 -0.0029126471 -0.5247954343 -0.0163460069 -0.0052561681 -0.5317109912 -0.0040679452 -0.0017305414 -0.5320353948 -0.0120925110 -0.0040800302 -0.5247429117 -0.0115069280 -0.0038590980 -0.5330181151 -0.0046359056 -0.0019307392 -0.5262134175 -0.0164978835 -0.0053233338 -0.5280210556 -0.0073873082 -0.0026773368 -0.5329420973 -0.0096127080 -0.0033697355 -0.5245303645 -0.0145311110 -0.0047282276 -0.5328224107 -0.0037765361 -0.0016620549 -0.5296659019 -0.0139540950 -0.0046107588 -0.5252918798 -0.0099925147 -0.0034246676 -0.5329906725 -0.0068893013 -0.0025846911 -0.5250752665 -0.0165965139 -0.0053375283 -0.5302291173 -0.0052817157 -0.0020748570 -0.5326631865 -0.0111099344 -0.0037993648 -0.5245372823 -0.0125329474 -0.0041540026 -0.5329464629 -0.0038462703 -0.0016965120 -0.5274055036 -0.0162656878 -0.0052658087 -0.5265954290 -0.0084542661 -0.0029835621 -0.5329373914 -0.0086570547 -0.0030950978 -0.5245905664 -0.0160251370 -0.0051595179 -0.5324256734 -0.0037642833 -0.0016494278 -0.5310915968 -0.0127518642 -0.0042687235 -0.5248254924 -0.0109159619 -0.0036899537 -0.5329475512 -0.0055568781 -0.0021990830 -0.5255806723 -0.0167079663 -0.0053787673 -0.5287809415 -0.0066469871 -0.0024657917 -0.5327993904 -0.0101818629 -0.0035336323 -0.5244425940 -0.0137045284 -0.0044910099 -0.5328232357 -0.0036312588 -0.0016263305 -0.5287321183 -0.0148003038 -0.0048517394 -0.5255835870 -0.0094195797 -0.0032607371 -0.5329139593 -0.0076096141 -0.0027933573 -0.5247699559 -0.0166779552 -0.0053552758 -0.5311092698 -0.0043381862 -0.0018062971 -0.5323167447 -0.0117058840 -0.0039703270 -0.5245471765 -0.0118847164 -0.0039683268 -0.5328911745 -0.0040494162 -0.0017609154 -0.5264502212 -0.0166935488 -0.0053839622 -0.5273205606 -0.0078096975 -0.0027992236 -0.5328372962 -0.0092535223 -0.0032672109 -0.5244436114 -0.0150830499 -0.0048881993 -0.5325757077 -0.0035473783 -0.0015933111 -0.5301322553 -0.0134708496 -0.0044741200 -0.5249722132 -0.0103422911 -0.0035257480 -0.5328808678 -0.0064050216 -0.0024454430 -0.5251174705 -0.0168568527 -0.0054162917 -0.5295951349 -0.0058280059 -0.0022319750 -0.5326093795 -0.0107509753 -0.0036972534 -0.5243960477 -0.0129583262 -0.0042770008 -0.5328019939 -0.0035412469 -0.0016066382 -0.5277714096 -0.0157296086 -0.0051157254 -0.5260069613 -0.0088304957 -0.0030921843 -0.5328353624 -0.0082700746 -0.0029843297 -0.5245455974 -0.0165855214 -0.0053230712 -0.5319977846 -0.0036028464 -0.0015995126 -0.5316527757 -0.0123364235 -0.0041509211 -0.5246031734 -0.0112765088 -0.0037941329 -0.5328365065 -0.0049874822 -0.0020347267 -0.5257295320 -0.0169138519 -0.0054421638 -0.5281062640 -0.0071109170 -0.0025994567 -0.5327169775 -0.0098291742 -0.0034330515 -0.5243434308 -0.0142029771 -0.0046352521 -0.5326358444 -0.0033918644 -0.0015548544 -0.5291663363 -0.0142648999 -0.0047005390 -0.5252002634 -0.0097730451 -0.0033628056 -0.5328152103 -0.0071705351 -0.0026673035 -0.5247773116 -0.0169528647 -0.0054382383 -0.5304725149 -0.0049239939 -0.0019742730 -0.5323384975 -0.0113326729 -0.0038642360 -0.5243886544 -0.0122778261 -0.0040819173 -0.5327697341 -0.0035481048 -0.0016149780 -0.5267743409 -0.0166750871 -0.0053832383 -0.5266047691 -0.0082116723 -0.0029151476 -0.5327488193 -0.0088864989 -0.0031622721 -0.5243826729 -0.0156660059 -0.0050572996 -0.5322934437 -0.0033585507 -0.0015358079 -0.5306507665 -0.0130167004 -0.0043454472 -0.5247126356 -0.0106938784 -0.0036272770 -0.5327821925 -0.0058889039 -0.0022967810 -0.5252030325 -0.0170724502 -0.0054823907 -0.5289336800 -0.0063420586 -0.0023798120 -0.5325601891 -0.0103969693 -0.0035963817 -0.5242832463 -0.0134088219 -0.0044072319 -0.5326536584 -0.0032882963 -0.0015314007 -0.5281854445 -0.0151440982 -0.0049507072 -0.5255357355 -0.0091955860 -0.0031975220 -0.5327470667 -0.0078663384 -0.0028685823 -0.5245273383 -0.0169896515 -0.0054427226 -0.5314228131 -0.0039556558 -0.0016989607 -0.5319346029 -0.0119402005 -0.0040383729 -0.5244216939 -0.0116468738 -0.0039010897 -0.5327317398 -0.0043906536 -0.0018620917 -0.5259419416 -0.0170830735 -0.0054952417 -0.5273997659 -0.0075483253 -0.0027254376 -0.5326460035 -0.0094735941 -0.0033314881 -0.5242681790 -0.0147345196 -0.0047891246 -0.5324276092 -0.0031933056 -0.001494