<?xml version="1.0"?>
<VTKFile type="UnstructuredGrid" version="0.1" byte_order="LittleEndian">
  <UnstructuredGrid>
    <FieldData>
      <DataArray type="Float32" Name="TIME"  NumberOfTuples="1" format="ascii"> 0.4000000000 </DataArray>
      <DataArray type="Int32"   Name="STEP"  NumberOfTuples="1" format="ascii"> 40000 </DataArray>
    </FieldData>
    <Piece NumberOfPoints="2004" NumberOfCells="2004">
      <Points>
        <DataArray type="Float32" NumberOfComponents="3" format="ascii">
 0.0309093843 0.9993306460 -0.0015603756 -0.0411383721 0.9982978509 0.0354016999 0.0054849146 0.9958091259 -0.0718967711 0.0501143637 0.9960598475 0.0648060376 -0.0944321475 0.9991489872 -0.0182069605 0.0879613362 0.9970785394 -0.0579265374 -0.0302697450 0.9904466483 0.1080748478 -0.0569485386 0.9908841277 -0.1099877979 0.1223286783 0.9978157953 0.0434368193 -0.1288223163 0.9972453904 0.0512136683 0.0604849124 0.9870012007 -0.1322052699 0.0442876543 0.9840653682 0.1421930374 -0.1381436060 0.9947981139 -0.0813209717 0.1612755366 0.9984466723 -0.0371003143 -0.0984275562 0.9850909606 0.1372154489 -0.0230217440 0.9776003676 -0.1744106870 0.1384488400 0.9891617634 0.1158393505 -0.1901394657 0.9992786708 0.0061500048 0.1357599757 0.9860076213 -0.1372628117 -0.0098328772 0.9712441176 0.1930187788 -0.1300861539 0.9818742432 -0.1567882008 0.2080356780 0.9987276740 0.0266275660 -0.1760052179 0.9883583024 0.1202220803 0.0462782060 0.9675070333 -0.2100084606 0.1083040784 0.9724480595 0.1889091138 -0.2192771616 0.9958685827 -0.0714387675 0.2110931754 0.9924603268 -0.0993084891 -0.0901899186 0.9654614114 0.2118261911 -0.0801941033 0.9633683241 -0.2229433551 0.2170172400 0.9896534490 0.1130051624 -0.2444788810 0.9962632842 0.0625274493 0.1339537535 0.9672401566 -0.2108141088 0.0414182977 0.9541360263 0.2444120676 -0.2066804378 0.9808436779 -0.1612828852 0.2679756563 0.9989868021 -0.0236899315 -0.1815443067 0.9710365611 0.1936358452 0.0007056534 0.9478850175 -0.2651069785 0.1828145639 0.9689145854 0.2009413364 -0.2851500604 0.9988340602 -0.0280975139 0.2251785033 0.9779594336 -0.1728564649 -0.0505060884 0.9434843878 0.2711454691 -0.1521888672 0.9565364816 -0.2426090824 0.2884172654 0.9946461022 0.0778312077 -0.2684128986 0.9853959288 0.1355934574 0.1007591589 0.9438378331 -0.2749095509 0.1103553295 0.9433032712 0.2716634153 -0.2825580761 0.9864097835 -0.1353482518 0.3028855322 0.9929645723 -0.0950071889 -0.1558365965 0.9469506623 0.2627018614 -0.0646103562 0.9328424206 -0.2999522987 0.2616847639 0.9735622809 0.1850175279 -0.3316075749 0.9976185190 0.0394717360 0.2083636944 0.9548472070 -0.2469959546 0.0105945164 0.9240887891 0.3135438733 -0.2324160459 0.9585732437 -0.2369874696 0.3461621491 0.9979748229 0.0163496770 -0.2622663259 0.9646417687 0.2142407595 0.0445782086 0.9206209411 -0.3250679238 0.1904139706 0.9413569492 0.2762840349 -0.3506030490 0.9932599157 -0.0822941330 0.3093632034 0.9766917792 -0.1770589573 -0.1055135540 0.9204389034 0.3207427156 -0.1432314157 0.9259209578 -0.3145447576 0.3383584291 0.9830994405 0.1424831807 -0.3521534037 0.9861185387 0.1226582551 0.1652111723 0.9264641207 -0.3132586982 0.0867813369 0.9115505402 0.3377722111 -0.3152637794 0.9684377204 -0.2062791869 0.3802284329 0.9883687857 -0.0649315668 -0.2280992879 0.9358002823 0.2886762613 -0.0283603838 0.9024142758 -0.3588036096 0.2767340211 0.9489586409 0.2578564825 -0.3964871559 0.9813209139 -0.0056770824 0.2865773001 0.9500136698 -0.2594255425 -0.0366157650 0.8966813593 0.3639420845 -0.2307288550 0.9290356989 -0.3081433620 0.3968443454 0.9730728036 0.0729540732 -0.3435411263 0.9638493807 0.2115240819 0.1013272625 0.8980334354 -0.3662800946 0.1737372477 0.9087853761 0.3428835043 -0.3882530803 0.9682305737 -0.1476804787 0.3857433241 0.9666069343 -0.1564972153 -0.1706093865 0.9036804934 0.3518143542 -0.1135707079 0.8929715574 -0.3748881817 0.3621907732 0.9593860507 0.2137260644 -0.4095586405 0.9433218429 0.0838354811 0.2375056830 0.9163615878 -0.3332061034 0.0460037317 0.8801855137 0.3905985581 -0.3228633112 0.9414920704 -0.2788669911 0.4152206248 0.9156500455 -0.0145723176 -0.3061110052 0.9320920346 0.2960483621 0.0220089273 0.8747398044 -0.4035362720 0.2681693104 0.9170791612 0.3273998239 -0.4165745037 0.9015916727 -0.0620033393 0.3654723130 0.9448139548 -0.2508626280 -0.0954327624 0.8740224970 0.3998922564 -0.2079786117 0.8946368522 -0.3721747732 0.4095085143 0.9045350612 0.1338741009 -0.4033274760 0.9186357682 0.1793369422 0.1677347340 0.8816691848 -0.3928556620 0.1390334233 0.8741650734 0.3998071299 -0.3968640158 0.9205848594 -0.2151006082 0.4143411343 0.8706658124 -0.1065587279 -0.2438329485 0.8942047566 0.3679663269 -0.0688409865 0.8606273728 -0.4241088303 0.3628646554 0.9266140198 0.2859759798 -0.4198554494 0.8354290535 0.0286272128 0.3162599286 0.9131941895 -0.3373114438 -0.0073078383 0.8517564374 0.4316133085 -0.3088633981 0.9076741555 -0.3484695320 0.4182767911 0.8192649015 0.0414277270 -0.3797674904 0.9132944683 0.2799002590 0.0829404074 0.8518401062 -0.4361528744 0.2403220335 0.8804693030 0.3902534858 -0.4158619834 0.8221555349 -0.1201498341 0.4047176548 0.8590173410 -0.2045386183 -0.1633852772 0.8576027960 0.4235173129 -0.1688756784 0.8583925911 -0.4272939004 0.4058205407 0.8431724297 0.1960865704 -0.4157814296 0.8034284027 0.1215118006 0.2422516381 0.8725445622 -0.4066791430 0.0907396430 0.8404021654 0.4466662046 -0.3896355027 0.8789830417 -0.2840450229 0.4184835293 0.7676031141 -0.0496824363 -0.3236448729 0.8908350146 0.3698576999 -0.0127808422 0.8313549580 -0.4627956204 0.3453047679 0.8929014041 0.3567603739 -0.4204435070 0.7502478744 -0.0276402825 0.3819580818 0.8744403221 -0.3113182901 -0.0703029002 0.8281923094 0.4619534680 -0.2766679707 0.8693611313 -0.4114480662 0.4160671358 0.7503946195 0.0985998593 -0.4047432872 0.8042442175 0.2216473862 0.1524825170 0.8351527213 -0.4579390892 0.1972346397 0.8422019827 0.4443934248 -0.4106060223 0.7687152390 -0.1807201278 0.4130738855 0.7483777507 -0.1436163524 -0.2393021923 0.8484360316 0.4359287163 -0.1172800122 0.8232026941 -0.4728469345 0.3965592613 0.8048063275 0.2622828821 -0.4194207289 0.7118632163 0.0635470494 0.3231926363 0.8684444681 -0.4070971146 0.0320827290 0.8098955870 0.4837456516 -0.3730145880 0.8533846225 -0.3567770872 0.4192346682 0.6933086393 0.0065296139 -0.3817320909 0.8337953427 0.3334724217 0.0521989955 0.8070022166 -0.4917288865 0.3108187547 0.8565741643 0.4219705641 -0.4185930124 0.6911214647 -0.0844950537 0.4005938858 0.7591445511 -0.2459460135 -0.1413967280 0.8108658298 0.4825341862 -0.2298930326 0.8292427361 -0.4655239319 0.4113106128 0.7048562387 0.1580299719 -0.4128370818 0.7023696564 0.1586240480 0.2297747224 0.8256808009 -0.4696349288 0.1425035305 0.8052105112 0.4891419238 -0.4020410492 0.7367063585 -0.2453089749 0.4171895592 0.6658241242 -0.0850511418 -0.3214367317 0.8435018103 0.4355190915 -0.0561330456 0.7914170513 -0.5090386574 0.3821821759 0.7861350883 0.3342833580 -0.4207022707 0.6457321713 0.0069829824 0.3760294194 0.7985503909 -0.3619561599 -0.0348081255 0.7844144882 0.5117053801 -0.3440434834 0.8347709449 -0.4303577452 0.4179575567 0.6409326220 0.0629577241 -0.3987283199 0.7205609932 0.2633587122 0.1247758868 0.7888763012 -0.5116635063 0.2610225010 0.8155964322 0.4770378441 -0.4145383323 0.6514044633 -0.1431689125 0.4093889723 0.6644648597 -0.1815167239 -0.2199760556 0.8007527658 0.4939299122 -0.1721190743 0.7904752938 -0.5101161602 0.4037163768 0.6772003092 0.2211175744 -0.4176447551 0.6266523865 0.0990285587 0.3132255978 0.8201997968 -0.4691439283 0.0789264266 0.7718171199 0.5247463811 -0.3893239129 0.7218055529 -0.3154942177 0.4190724584 0.6053486817 -0.0283015671 -0.3717866466 0.7667175152 0.3834788139 0.0126145005 0.7647351611 -0.5365156537 0.3603998322 0.7821272892 0.4127007193 -0.4200218267 0.5983344011 -0.0493612755 0.3934621744 0.6891209915 -0.2887971803 -0.1087977344 0.7651934389 0.5312584666 -0.2959411817 0.8038113425 -0.4924837068 0.4145971295 0.6050364335 0.1208426566 -0.4085474553 0.6316140842 0.1970893320 0.2045299652 0.7779142897 -0.5231138106 0.2002667979 0.7748185882 0.5217663311 -0.4078764134 0.6268508020 -0.2050267567 0.4149763767 0.5935359337 -0.1210892453 -0.3048531024 0.7951207790 0.4940639478 -0.1061275174 0.7554638286 -0.5456054200 0.3924141854 0.6641273022 0.2893824161 -0.4201604722 0.5704850891 0.0417189401 0.3635610964 0.7410166614 -0.4128273627 0.0083481189 0.7436557117 0.5519109850 -0.3707465685 0.7211335941 -0.3927311532 0.4189881348 0.5613132049 0.0278773445 -0.3906022889 0.6613142786 0.3072517691 0.0879597868 0.7443193509 -0.5560082837 0.3242157195 0.7790877088 0.4909919461 -0.4173279682 0.5653047530 -0.1067360811 0.4044844005 0.6042159906 -0.2209465603 -0.1896150041 0.7531156036 0.5429261780 -0.2327289320 0.7625392688 -0.5387526434 0.4088015766 0.5822927696 0.1815092641 -0.4149852821 0.5644300746 0.1353977648 0.2908274357 0.7723184858 -0.5244661522 0.1318323547 0.7378960930 0.5572593782 -0.3978421602 0.6149564641 -0.2715556461 0.4181524921 0.5403156341 -0.0633335353 -0.3572344358 0.7174388446 0.4354763584 -0.0337133510 0.7257928733 -0.5727893249 0.3759571322 0.6636518705 0.3643914003 -0.4206735988 0.5290833522 -0.0145984425 0.3842990231 0.6387183616 -0.3341075891 -0.0683189055 0.7218114703 0.5714276513 -0.3430517765 0.7310303986 -0.4770651612 0.4169348546 0.5300844993 0.0847264150 -0.4029830425 0.5796591528 0.2373232871 0.1697440648 0.7309900322 -0.5680793567 0.2635238164 0.7486588475 0.5463258745 -0.4123385412 0.5439289798 -0.1664452990 0.4118452480 0.5395673331 -0.1581337948 -0.2771713242 0.7473856012 0.5457508864 -0.1617910858 0.7237493054 -0.5746488477 0.3999161058 0.5707115501 0.2464003504 -0.4188555781 0.5135859546 0.0768463947 0.3469572078 0.6988716584 -0.4663563921 0.0575429892 0.7064752072 0.5845046543 -0.3831853140 0.6142473264 -0.3443353765 0.4192681983 0.5006198201 -0.0069334880 -0.3803050505 0.6179555434 0.3538668608 0.0442684846 0.7024729320 -0.5925430490 0.3520144817 0.6741690070 0.4473669190 -0.4192413988 0.499312
[...]
      <PointData Scalars="material ID">
        <DataArray type="Int32" Name="material ID" format="ascii">
 0 0 0 0 0 0 0 0 0 0 0 0 0 0 0 0 0 0 0 0 0 0 0 0 0 0 0 0 0 0 0 0 0 0 0 0 0 0 0 0 0 0 0 0 0 0 0 0 0 0 0 0 0 0 0 0 0 0 0 0 0 0 0 0 0 0 0 0 0 0 0 0 0 0 0 0 0 0 0 0 0 0 0 0 0 0 0 0 0 0 0 0 0 0 0 0 0 0 0 0 0 0 0 0 0 0 0 0 0 0 0 0 0 0 0 0 0 0 0 0 0 0 0 0 0 0 0 0 0 0 0 0 0 0 0 0 0 0 0 0 0 0 0 0 0 0 0 0 0 0 0 0 0 0 0 0 0 0 0 0 0 0 0 0 0 0 0 0 0 0 0 0 0 0 0 0 0 0 0 0 0 0 0 0 0 0 0 0 0 0 0 0 0 0 0 0 0 0 0 0 0 0 0 0 0 0 0 0 0 0 0 0 0 0 0 0 0 0 0 0 0 0 0 0 0 0 0 0 0 0 0 0 0 0 0 0 0 0 0 0 0 0 0 0 0 0 0 0 0 0 0 0 0 0 0 0 0 0 0 0 0 0 0 0 0 0 0 0 0 0 0 0 0 0 0 0 0 0 0 0 0 0 0 0 0 0 0 0 0 0 0 0 0 0 0 0 0 0 0 0 0 0 0 0 0 0 0 0 0 0 0 0 0 0 0 0 0 0 0 0 0 0 0 0 0 0 0 0 0 0 0 0 0 0 0 0 0 0 0 0 0 0 0 0 0 0 0 0 0 0 0 0 0 0 0 0 0 0 0 0 0 0 0 0 0 0 0 0 0 0 0 0 0 0 0 0 0 0 0 0 0 0 0 0 0 0 0 0 0 0 0 0 0 0 0 0 0 0 0 0 0 0 0 0 0 0 0 0 0 0 0 0 0 0 0 0 0 0 0 0 0 0 0 0 0 0 0 0 0 0 0 0 0 0 0 0 0 0 0 0 0 0 0 0 0 0 0 0 0 0 0 0 0 0 0 0 0 0 0 0 0 0 0 0 0 0 0 0 0 0 0 0 0 0 0 0 0 0 0 0 0 0 0 0 0 0 0 0 0 0 0 0 0 0 0 0 0 0 0 0 0 0 0 0 0 0 0 0 0 0 0 0 0 0 0 0 0 0 0 0 0 0 0 0 0 0 0 0 0 0 0 0 0 0 0 0 0 0 0 0 0 0 0 0 0 0 0 0 0 0 0 0 0 0 0 0 0 0 0 0 0 0 0 0 0 0 0 0 0 0 0 0 0 0 0 0 0 0 0 0 0 0 0 0 0 0 0 0 0 0 0 0 0 0 0 0 0 0 0 0 0 0 0 0 0 0 0 0 0 0 0 0 0 0 0 0 0 0 0 0 0 0 0 0 0 0 0 0 0 0 0 0 0 0 0 0 0 0 0 0 0 0 0 0 0 0 0 0 0 0 0 0 0 0 0 0 0 0 0 0 0 0 0 0 0 0 0 0 0 0 0 0 0 0 0 0 0 0 0 0 0 0 0 0 0 0 0 0 0 0 0 0 0 0 0 0 0 0 0 0 0 0 0 0 0 0 0 0 0 0 0 0 0 0 0 0 0 0 0 0 0 0 0 0 0 0 0 0 0 0 0 0 0 0 0 0 0 0 0 0 0 0 0 0 0 0 0 0 0 0 0 0 0 0 0 0 0 0 0 0 0 0 0 0 0 0 0 0 0 0 0 0 0 0 0 0 0 0 0 0 0 0 0 0 0 0 0 0 0 0 0 0 0 0 0 0 0 0 0 0 0 0 0 0 0 0 0 0 0 0 0 0 0 0 0 0 0 0 0 0 0 0 0 0 0 0 0 0 0 0 0 0 0 0 0 0 0 0 0 0 0 0 0 0 0 0 0 0 0 0 0 0 0 0 0 0 0 0 0 0 0 0 0 0 0 0 0 0 0 0 0 0 0 0 0 0 0 0 0 0 0 0 0 0 0 0 0 0 0 0 0 0 0 0 0 0 0 0 0 0 0 0 0 0 0 0 0 0 0 0 0 0 0 0 0 0 0 0 0 0 0 0 0 0 0 0 0 0 0 0 0 0 0 0 0 0 0 0 0 0 0 0 0 0 0 0 0 0 0 0 0 0 0 0 0 0 0 0 0 0 0 0 0 0 0 0 0 0 0 0 0 0 0 0 0 0 0 0 0 0 0 0 0 0 0 0 0 0 0 0 0 0 0 0 0 0 0 0 0 0 0 0 0 0 0 0 0 0 0 0 0 0 0 0 0 0 0 0 0 0 0 0 0 0 0 0 0 0 0 0 0 0 0 0 0 0 0 0 0 0 0 0 0 0 0 0 0 0 0 0 0 0 0 0 0 0 0 0 0 0 0 0 0 0 0 0 0 0 0 0 0 0 0 0 0 0 0 0 0 0 0 0 0 0 0 0 0 0 0 0 0 0 0 0 0 0 0 0 0 0 0 0 0 0 0 0 0 0 0 0 0 0 0 0 0 0 0 0 0 0 0 0 0 0 0 0 0 0 0 0 0 0 0 0 0 0 0 0 0 0 0 0 0 0 0 0 0 0 0 0 0 0 0 0 0 0 0 0 0 0 0 0 0 0 0 0 0 0 0 0 0 0 0 0 0 0 0 0 0 0 0 0 0 0 0 0 0 0 0 0 0 0 0 0 0 0 0 0 0 0 0 0 0 0 0 0 0 0 0 0 0 0 0 0 0 0 0 0 0 0 0 0 0 0 0 0 0 0 0 0 0 0 0 0 0 0 0 0 0 0 0 0 0 0 0 0 0 0 0 0 0 0 0 0 0 0 0 0 0 0 0 0 0 0 0 0 0 0 0 0 0 0 0 0 0 0 0 0 0 0 0 0 0 0 0 0 0 0 0 0 0 0 0 0 0 0 0 0 0 0 0 0 0 0 0 0 0 0 0 0 0 0 0 0 0 0 0 0 0 0 0 0 0 0 0 0 0 0 0 0 0 0 0 0 0 0 0 0 0 0 0 0 0 0 0 0 0 0 0 0 0 0 0 0 0 0 0 0 0 0 0 0 0 0 0 0 0 0 0 0 0 0 0 0 0 0 0 0 0 0 0 0 0 0 0 0 0 0 0 0 0 0 0 0 0 0 0 0 0 0 0 0 0 0 0 0 0 0 0 0 0 0 0 0 0 0 0 0 0 0 0 0 0 0 0 0 0 0 0 0 0 0 0 0 0 0 0 0 0 0 0 0 0 0 0 0 0 0 0 0 0 0 0 0 0 0 0 0 0 0 0 0 0 0 0 0 0 0 0 0 0 0 0 0 0 0 0 0 0 0 0 0 0 0 0 0 0 0 0 0 0 0 0 0 0 0 0 0 0 0 0 0 0 0 0 0 0 0 0 0 0 0 0 0 0 0 0 0 0 0 0 0 0 0 0 0 0 0 0 0 0 0 0 0 0 0 0 0 0 0 0 0 0 0 0 0 0 0 0 0 0 0 0 0 0 0 0 0 0 0 0 0 0 0 0 0 0 0 0 0 0 0 0 0 0 0 0 0 0 0 0 0 0 0 0 0 0 0 0 0 0 0 0 0 0 0 0 0 0 0 0 0 0 0 0 0 0 0 0 0 0 0 0 0 0 0 0 0 0 0 0 0 0 0 0 0 0 0 0 0 0 0 0 0 0 0 0 0 0 0 0 0 0 0 0 0 0 0 0 0 0 0 0 0 0 0 0 0 0 0 0 0 0 0 0 0 0 0 0 0 0 0 0 0 0 0 0 0 0 0 0 0 0 0 0 0 0 0 0 0 0 0 0 0 0 0 0 0 0 0 0 0 0 0 0 0 0 0 0 0 0 0 0 0 0 0 0 0 0 0 0 0 0 0 0 0 0 0 0 0 0 0 0 0 0 0 0 0 0 0 0 0 0 0 0 0 0 0 0 0 0 0 0 0 0 0 0 0 0 0 0 0 0 0 0 0 0 0 0 0 0 0 0 0 0 0 0 0 0 0 0 0 0 0 0 0 0 0 0 0 0 0 0 0 0 0 0 0 0 0 0 0 0 0 0 0 0 0 0 0 0 0 0 0 0 0 0 0 0 0 0 0 0 0 0 0 0 0 0 0 0 0 0 0 0 0 0 0 0 0 0 0 0 0 0 0 0 0 0 0 0 0 0 0 0 0 0 0 0 0 0 0 0 0 0 0 0 0 0 0 0 0 0 0 0 0 0 0 0 0 0 0 0 0 0 0 0 0 0 0 0 0 0 0 0 0 0 0 0 0 0 0 0 0 0 0 0 0 0 0 0 0 0 0 0 0 0 0 0 0 0 0 0 0 0 0 0 0 0 0 0 0 0 0 0 0 0 0 0 0 0 0 0 0 0 0 0 0 0 0 0 0 0 0 0 0 0 0 0 0 0 0 0 0 0 0 0 0 0 0 0 0 0 0 0 0 0 0 0 0 0 0 0 0 0 0 0 0 0 0 0 0 0 0 0 0 0 0 0 0 0 0 0 0
        </DataArray>
        <DataArray type="Float32" Name="velocity" NumberOfComponents="3" format="ascii">
 -0.0040380595 -0.0036704249 0.2214473190 -0.0039532682 -0.0034757582 0.2216180366 -0.0041993213 -0.0040435405 0.2215242910 -0.0038857910 -0.0033184478 0.2214206027 -0.0040762362 -0.0037606965 0.2217357584 -0.0041673008 -0.0039681566 0.2213284011 -0.0037864595 -0.0030905004 0.2216347106 -0.0042866037 -0.0042464049 0.2216935816 -0.0039348313 -0.0034304887 0.2212456714 -0.0039169853 -0.0033934188 0.2218247206 -0.0043374966 -0.0043621956 0.2214448171 -0.0037081027 -0.0029084875 0.2214975226 -0.0042209195 -0.0040958436 0.2218590670 -0.0041195574 -0.0038565952 0.2211530021 -0.0037195359 -0.0029372139 0.2218194124 -0.0044341418 -0.0045872084 0.2216861565 -0.0037686301 -0.0030465784 0.2212545548 -0.0040203745 -0.0036332112 0.2219545805 -0.0043490799 -0.0043877541 0.2212774349 -0.0035913202 -0.0026400649 0.2216895876 -0.0043937943 -0.0044955947 0.2219090675 -0.0039733991 -0.0035181451 0.2210442665 -0.0037585648 -0.0030285361 0.2219800275 -0.0045156207 -0.0047746912 0.2215806961 -0.0036007657 -0.0026598948 0.2214122554 -0.0041982718 -0.0040448167 0.2220394785 -0.0042621362 -0.0041854016 0.2210704632 -0.0035480892 -0.0025417326 0.2219045315 -0.0045452194 -0.0048453140 0.2218926964 -0.0037751385 -0.0030603016 0.2210717491 -0.0038910204 -0.0033353751 0.2220951884 -0.0045174641 -0.0047775157 0.2213810222 -0.0034731654 -0.0023668991 0.2216626925 -0.0044040860 -0.0045206730 0.2220902009 -0.0040888090 -0.0037837787 0.2209054182 -0.0035899015 -0.0026396243 0.2220845157 -0.0046416685 -0.0050673967 0.2217891916 -0.0035731110 -0.0025949111 0.2212600852 -0.0040989155 -0.0038162465 0.2221748477 -0.0044305831 -0.0045748837 0.2211149948 -0.0034116755 -0.0022267593 0.2219299661 -0.0045902111 -0.0049507044 0.2220940203 -0.0038558939 -0.0032455042 0.2208815348 -0.0037232610 -0.0029486090 0.2222076659 -0.0046640845 -0.0051176899 0.2215811592 -0.0034104846 -0.0022213645 0.2215619825 -0.0043446954 -0.0043845013 0.2222347363 -0.0042522793 -0.0041610976 0.2208572612 -0.0034310985 -0.0022732354 0.2221531796 -0.0047213401 -0.0052531104 0.2220187043 -0.0036097096 -0.0026779884 0.2210545655 -0.0039439222 -0.0034589776 0.2222878411 -0.0046002447 -0.0049680092 0.2212760269 -0.0033141132 -0.0020010930 0.2218926019 -0.0045773512 -0.0049222386 0.2222672328 -0.0039969596 -0.0035703296 0.2207314560 -0.0035425378 -0.0025317734 0.2223035400 -0.0047787426 -0.0053843935 0.2218330340 -0.0033998549 -0.0021955619 0.2213886773 -0.0042231262 -0.0041045005 0.2223545034 -0.0044402008 -0.0045957648 0.2209286302 -0.0032975422 -0.0019648609 0.2221782412 -0.0047546946 -0.0053317278 0.2222357007 -0.0037074213 -0.0029021051 0.2208281756 -0.0037529404 -0.0030185294 0.2223958998 -0.0047517539 -0.0053198316 0.2215253949 -0.0032583378 -0.0018714573 0.2217843011 -0.0045070828 -0.0047608872 0.2224049783 -0.0041832237 -0.0040004594 0.2207042236 -0.0033713412 -0.0021367935 0.2223780009 -0.0048558171 -0.0055643530 0.2220967951 -0.0034422447 -0.0022917832 0.2211504185 -0.0040472046 -0.0036992800 0.2225230029 -0.0046286730 -0.0050325822 0.2211222521 -0.0031980710 -0.0017348220 0.2221461067 -0.0047400640 -0.0052992498 0.2224198759 -0.0038667244 -0.0032695606 0.2207471642 -0.0035487556 -0.0025475075 0.2224941463 -0.0048728926 -0.0056018325 0.2218225634 -0.0032465693 -0.0018429410 0.2215995156 -0.0043726805 -0.0044515884 0.2225734804 -0.0043928753 -0.0044855543 0.2208068861 -0.0032260018 -0.0018012918 0.2224163406 -0.0048925522 -0.0056509854 0.2223422639 -0.0035436317 -0.0025242124 0.2208991669 -0.0038412772 -0.0032251884 0.2227543315 -0.0047973377 -0.0054243373 0.2214131150 -0.0031366613 -0.0015922142 0.2220440227 -0.0046731224 -0.0051456389 0.2225651872 -0.0040665243 -0.0037330405 0.2210092876 -0.0033543719 -0.0020990157 0.2225765736 -0.0049579576 -0.0058005515 0.2221279115 -0.0032822185 -0.0019234298 0.2213389843 -0.0041750780 -0.0039980711 0.2229915415 -0.0046089478 -0.0049859094 0.2209688548 -0.0031152442 -0.0015452992 0.2224010705 -0.0048863563 -0.0056381631 0.2225499689 -0.0037258722 -0.0029465504 0.2210812844 -0.0036218334 -0.0027190449 0.2228708460 -0.0049335753 -0.0057415564 0.2217569652 -0.0031154418 -0.0015418873 0.2218625557 -0.0045265268 -0.0048089744 0.2228456939 -0.0042767584 -0.0042204703 0.2212496661 -0.0031888004 -0.0017169125 0.2226344921 -0.0050049092 -0.0059110576 0.2224110587 -0.0033773831 -0.0021413653 0.2210712729 -0.0039661224 -0.0035178942 0.2233496473 -0.0048067014 -0.0054447930 0.2212492717 -0.0030421237 -0.0013757646 0.2223169346 -0.0048322020 -0.0055142165 0.2227122712 -0.0039364975 -0.0034362585 0.2215130014 -0.0033910986 -0.0021857944 0.2228451124 -0.0050323880 -0.0059723756 0.2221095026 -0.0031374574 -0.0015908411 0.2215968407 -0.0043071310 -0.0043061646 0.2234108215 -0.0045012880 -0.0047398023 0.2213334607 -0.0030607885 -0.0014212349 0.2226439271 -0.0050121775 -0.0059295827 0.2226523347 -0.0035821740 -0.0026169613 0.2214148898 -0.0037525600 -0.0030256526 0.2235098676 -0.0049651297 -0.0058135762 0.2216344065 -0.0030074121 -0.0012943873 0.2221522218 -0.0046839686 -0.0051741762 0.2230495536 -0.0041446119 -0.0039190274 0.2217862714 -0.0031844069 -0.0017082055 0.2228354001 -0.0050931569 -0.0061151266 0.2224375901 -0.0032144803 -0.0017665840 0.2212901829 -0.0040937712 -0.0038160527 0.2238023520 -0.0047464463 -0.0053059788 0.2213039379 -0.0029721488 -0.0012160367 0.2225862778 -0.0049760151 -0.0058473951 0.2228414416 -0.0038042359 -0.0031333527 0.2218829975 -0.0035229077 -0.0024948747 0.2234802283 -0.0050820808 -0.0060866701 0.2220384272 -0.0030126544 -0.0013046757 0.2218984336 -0.0044451714 -0.0046270263 0.2236819348 -0.0043597370 -0.0044168512 0.2219005496 -0.0030321714 -0.0013567204 0.2228666188 -0.0051160758 -0.0061701079 0.2227204609 -0.0034297175 -0.0022663545 0.2216394243 -0.0038839963 -0.0033328547 0.2240033979 -0.0049660208 -0.0058144574 0.2214704900 -0.0029218660 -0.0010988780 0.2224484017 -0.0048503613 -0.0055592933 0.2231470731 -0.0040144628 -0.0036211600 0.2221782184 -0.0032669185 -0.0019019599 0.2232708663 -0.0051591155 -0.0062673669 0.2224175954 -0.0030643191 -0.0014216180 0.2215617681 -0.0042231962 -0.0041172829 0.2241114053 -0.0045946124 -0.0049592787 0.2218721222 -0.0029246605 -0.0011081555 0.2228411440 -0.0050993797 -0.0061331603 0.2229467394 -0.0036671798 -0.0028185242 0.2221352044 -0.0036657763 -0.0028289546 0.2240386022 -0.0051087497 -0.0061473703 0.2219113434 -0.0029094122 -0.0010684651 0.2222199715 -0.0045927816 -0.0049691270 0.2238318985 -0.0042240548 -0.0041064595 0.2223285432 -0.0030330296 -0.0013602441 0.2230811436 -0.0051985595 -0.0063608723 0.2227486424 -0.0032642734 -0.0018850770 0.2217713335 -0.0040126391 -0.0036325961 0.2243567507 -0.0048613364 -0.0055743951 0.2217196593 -0.0028573192 -0.0009518278 0.2227368377 -0.0050188154 -0.0059487033 0.2231792561 -0.0038841793 -0.0033221812 0.2224586762 -0.0034258621 -0.0022737567 0.2239098513 -0.0052045379 -0.0063718002 0.2223471820 -0.0029373446 -0.0011306493 0.2218931100 -0.0043571131 -0.0044281157 0.2243125572 -0.0044452808 -0.0046177375 0.2223536366 -0.0028983573 -0.0010490667 0.2230749563 -0.0052010153 -0.0063684927 0.2230196520 -0.0035220297 -0.0024843623 0.2222991647 -0.0038012139 -0.0031448169 0.2244508376 -0.0051075333 -0.0061433937 0.2217489875 -0.0028272015 -0.0008808526 0.2225427327 -0.0047535093 -0.0053408133 0.2238816872 -0.0040929006 -0.0038057253 0.2226446705 -0.0031511214 -0.0016368234 0.2236034862 -0.0052611397 -0.0065053341 0.2227323480 -0.0030843534 -0.0014699200 0.2218425288 -0.0041410865 -0.0039311404 0.2246063402 -0.0046917399 -0.0051864549 0.2222595182 -0.0028121566 -0.0008494394 0.2230083844 -0.0051607942 -0.0062771023 0.2232329792 -0.0037508261 -0.0030155173 0.2226565894 -0.0035763886 -0.0026250650 0.2244036816 -0.0052306191 -0.0064311588 0.2222223475 -0.0028340858 -0.0008946441 0.2222485287 -0.0044985825 -0.0047557767 0.2244273821 -0.0043055189 -0.0042974538 0.2227166581 -0.0028979570 -0.0010497549 0.2232994685 -0.0052818348 -0.0065554550 0.2230538151 -0.0033652457 -0.0021228285 0.2223943578 -0.0039317308 -0.0034485291 0.2247542254 -0.0049770640 -0.0058441556 0.2220531143 -0.0027644342 -0.0007380763 0.2228538284 -0.0049306448 -0.0057497684 0.2238426397 -0.0039633261 -0.0035080472 0.2228781979 -0.0033242151 -0.0020410434 0.2242051489 -0.0053055107 -0.0066073798 0.2226677188 -0.0029047387 -0.0010556685 0.2219416248 -0.0042721341 -0.0042351123 0.2247751784 -0.0045347224 -0.0048267481 0.2226841307 -0.0027851971 -0.0007889463 0.2232577404 -0.0052662342 -0.0065212295 0.2233066903 -0.0036113096 -0.0026941541 0.2227903953 -0.0037167742 -0.0029520608 0.2247744400 -0.0052336286 -0.0064369028 0.2220540710 -0.0027520725 -0.0007077019 0.2226011303 -0.0046509737 -0.0051081330 0.2244673935 -0.0041721766 -0.0039913670 0.2229913759 -0.0030310506 -0.0013610603 0.2238312266 -0.0053436935 -0.0066983034 0.2230449495 -0.0031932012 -0.0017256439 0.2224346220 -0.0040602153 -0.0037469507 0.2249747808 -0.0047948310 -0.0054266956 0.2225476065 -0.0027193119 -0.0006359250 0.2231454156 -0.0051242319 -0.0061961791 0.2237266795 -0.0038324255 -0.0032068506 0.2230483811 -0.0034832541 -0.0024117827 0.2246662169 -0.0053329766 -0.0066699943 0.2225507717 -0.0027773264 -0.0007634664 0.2222420603 -0.0044087279 -0.0045514158 0.2248770003 -0.0043895932 -0.0044937961 0.2230098070 -0.0027786241 -0.0007754213 0.2234889170 -0.0053479248 -0.0067102667 0.2233495303 -0.0034622880 -0.0023504572 0.2228721408 -0.0038502269 -0.0032623751 0.2250527283 -0.0050991410 -0.0061280675 0.2223145130 -0.0026890665 -0.0005645592 0.2229380088 -0.0048178858 -0.0054935350 0.2244375349 -0.0040421664 -0.0036924974 0.2231991562 -0.0032165868 -0.0017938708 0.2244112799 -0.0053886154 -0.0068016891 0.2229896616 -0.0030030662 -0.0012863697 0.2224338077 -0.0041894853 -0.0040467123 0.2251292451 -0.0046288225 -0.0050459641 0.2229370608 -0.0026903970 -0.0005710477 0.2234133655 -0.0053026734 -0.0066076255 0.2236144168 -0.0036972335 -0.0028953760 0.2231679640 -0.0036298133 -0.0027528971 0.2250169149 -0.0053427437 -0.0066913397 0.2223810271 -0.0026923852 -0.0005699725 0.2226242479 -0.0045540690 -0.0048875006 0.2249192874 -0.0042528603 -0.0041797040 0.2232605775 -0.0029044835 -0.0010697320 0.2239814588 -0.0054106194 -0.0068551166 0.2233504492 -0.0033001662 -0.0019761830 0.2229104605 -0.0039797988 -0.0035632096 0.2252594380 -0.0049047398 -0.0056822299 0.2227720698 -0.0026428288 -0.0004599944 0.2232523283 -0.0050026527 -0.0059196915 0.2243387250 -0.0039125667 -0.0033941999 0.2233545512 -0.0033854184 -0.0021871361 0.2248587495 -0.0054182508 -0.0068693999 0.2228844509 -0.0027988578 -0.0008145296 0.2224257262 -0.0043224065 -0.0043545096 0.2252280819 -0.0044769598 -0.0046972932 0.2232401201 -0.0026775027 -0.0005430094 0.2236571799 -0.0054001389 -0.0068329468 0.2236349087 -0.0035545896 -0.0025663840 0.2232456051 -0.0037673514 -0.0030725670 0.2252836469 -0.0052279394 -0.0064271867 0.2225312329 -0.0026278644 -0.0004235380 0.2229900421 -0.0047116535 -0.0052514647 0.2249049846 -0.0041212868 -0.0038771168 0.2234535961 -0.0031021117 -0.0015304241 0.2245539300 -0.0054569148 -0.0069617576 0.2233066038 -0.0031213905 -0.0015631778 0.2229132216 -0.0041083696 -0.0038613175 0.2254085577 -0.0047283841 -0.0052774258 0.2231381799 -0.0026115070 -0.0003897058 0.2235410674 -0.0052064823 -0.0063893995 0.2241718216 -0.0037804821 -0.0030898571 0.2234675869 -0.0035394794 -0.0025455292 0.2252021013 -0.0054333832 -0.0069032164 0.2227252433 -0.0026480194 -0.0004674486 0.2226206457 -0.0044620249 -0.0046774228 0.2252772405 -0.0043355930 -0.0043723921 0.2234765089 -0.0027721912 -0.0007647779 0.2240761680 -0.0054648713 -0.0069825819 0.2236465911 -0.0034010565 -0.0022119784 0.2232875697 -0.0038990997 -0.0033783908 0.2254849826 -0.0050220656 -0.0059546039 0.2229553735 -0.0025798940 -0.0003151512 0.2233295842 -0.0048850936 -0.0056516506 0.2248336707 -0.0039918770 -0.0035792004 0.2236009918 -0.0032819603 -0.0019491315 0.2249999510 -0.0054889195 -0.0070350420 0.2232152715 -0.0029235273 -0.0011058963 0.2228910988 -0.0042387729 -0.0041633107 0.2255091918 -0.0045683782 -0.0049098381 0.2234268095 -0.0025939760 -0.0003510902 0.2238036618 -0.0054110708 -0.0068606213 0.2239715743 -0.0036428974 -0.0027725538 0.2235452812 -0.0036823335 -0.0028774571 0.2254655736 -0.0053609984 -0.0067360129 0.2227289653 -0.0025782290 -0.0003090115 0.2230103774 -0.0046116655 -0.0050231507 0.2252791675 -0.0042013105 -0.0040634844 0.2236609190 -0.0029802660 -0.0012496039 0.2246485449 -0.0055130066 -0.0070935626 0.2236151329 -0.0032329988 -0.0018237995 0.2232992888 -0.0040280468 -0.0036773655 0.2256337554 -0.0048342232 -0.0055231353 0.2233038296 -0.0025461129 -0.0002393433 0.2236409114 -0.0050773673 -0.0060949210 0.2247029780 -0.0038617472 -0.0032793549 0.2237113845 -0.0034449021 -0.0023280497 0.2253443927 -0.0055080370 -0.0070781850 0.2230727130 -0.0027092784 -0.0006107440 0.2228669085 -0.0043739368 -0.0044759932 0.2255668036 -0.0044210743 -0.0045711567 0.2236543431 -0.0026392139 -0.0004579915 0.2241361357 -0.0055086013 -0.0070856706 0.2239332847 -0.0034965573 -0.0024348057 0.2235927502 -0.0038173963 -0.0031909378 0.2256667927 -0.0051470056 -0.0062443884 0.2231135140 -0.0025281325 -0.0001959131 0.2233778006 -0.0047749149 -0.0053999769 0.2252334400 -0.0040709906 -0.0037634353 0.2238041021 -0.0031720221 -0.0016958697 0.2251013018 -0.0055473293 -0.0071723074 0.2235384525 -0.0030470879 -0.0013942049 0.2232874243 -0.0041570471 -0.0039761477 0.2257386057 -0.0046646662 -0.0051334100 0.2235824487 -0.0025248792 -0.0001923244 0.2239245222 -0.0052886242 -0.0065816133 0.2245117249 -0.0037279796 -0.0029708838 0.2237909557 -0.0035943813 -0.0026753010 0.2256102751 -0.0054876975 -0.0070302772 0.2229449784 -0.0025419314 -0.0002251418 0.2230087747 -0.0045170111 -0.0048066604 0.2255839479 -0.0042828937 -0.0042532074 0.2238337571 -0.0028511183 -0.0009516423 0.2247053422 -0.0055590597 -0.0072021059 0.2239140229 -0.0033379288 -0.0020684810 0.2236142247 -0.0039478078 -0.0034933151 0.2258182641 -0.0049470764 -0.0057848782 0.2234456017 -0.0024919886 -0.0001148215 0.2237134958 -0.0049552871 -0.0058160002 0.2251374072 -0.0039417047 -0.0034655354 0.2239139027 -0.0033451922 -0.0020984703 0.2254529757 -0.0055697351 -0.0072231762 0.2234138192 -0.0028418488 -0.0009198686 0.2232633394 -0.0042889596 -0.0042813817 0.2258049980 -0.0045100595 -0.0047778163 0.2238043063 -0.0025256092 -0.0001959903 0.2242000631 -0.0055036884 -0.0070768097 0.2242798530 -0.0035874833 -0.0026466786 0.2238442574 -0.0037339595 -0.0029992387 0.2258150048 -0.0052789725 -0.0065503215 0.2232597371 -0.0024855768 -0.0000977382 0.2233974936 -0.0046714368 -0.0051632624 0.2255606916 -0.0041505501 -0.0039484684 0.2239749138 -0.0030549143 -0.0014258116 0.2251702882 -0.0055955808 -0.0072860332 0.2238517610 -0.0031633985 -0.0016652653 0.2236143488 -0.0040764964 -0.0037914169 0.2259286449 -0.0047666700 -0.0053700283 0.2237160171 -0.0024676480 -0.0000607832 0.2240191515 -0.0051550879 -0.0062765228 0.2249875250 -0.0038105784 -0.0031631850 0.2239960668 -0.0035026691 -0.0024642467 0.2257255554 -0.0055787879 -0.0072428593 0.2232423758 -0.0026219280 -0.0004116923 0.2232502673 -0.0044267875 -0.0046000265 0.2258358476 -0.0043667309 -0.0044479529 0.2239808492 -0.0027158103 -0.0006392329 0.2247321021 -0.0055967839 -0.0072913413 0.2242037328 -0.0034368961 -0.0022989977 0.2238749378 -0.0038669547 -0.0033076193 0.2259712427 -0.0050674387 -0.0060638645 0.2235727975 -0.0024471793 -0.0000116300 0.2237596280 -0.0048408430 -0.0055541686 0.2254949232 -0.0040210161 -0.0036499986 0.2240851980 -0.0032394710 -0.0018548046 0.2255339511 -0.0056207166 -0.0073433350 0.2237446391 -0.0029700746 -0.0012185289 0.2236003149 -0.0042063057 -0.0040918536 0.2260036567 -0.0046033562 -0.0049942894 0.2239337845 -0.0024541769 -0.0000316665 0.2242983542 -0.0053724656 -0.0067772593 0