<?xml version="1.0"?>
<VTKFile type="UnstructuredGrid" version="0.1" byte_order="LittleEndian">
  <UnstructuredGrid>
    <FieldData>
      <DataArray type="Float32" Name="TIME"  NumberOfTuples="1" format="ascii"> 0.8500000000 </DataArray>
      <DataArray type="Int32"   Name="STEP"  NumberOfTuples="1" format="ascii"> 85000 </DataArray>
    </FieldData>
    <Piece NumberOfPoints="2004" NumberOfCells="2004">
      <Points>
        <DataArray type="Float32" NumberOfComponents="3" format="ascii">
 0.0278480011 0.9976940119 0.0029189983 -0.0443085948 0.9965945283 0.0396662118 0.0026312774 0.9943025715 -0.0674985298 0.0468568886 0.9943005801 0.0693356904 -0.0974438339 0.9975454630 -0.0140979165 0.0850661069 0.9955446390 -0.0532825137 -0.0336547097 0.9886092440 0.1123565469 -0.0596895002 0.9894489718 -0.1057827466 0.1191340106 0.9960944857 0.0481830638 -0.1320388601 0.9955146482 0.0552172409 0.0578089865 0.9856046939 -0.1276604917 0.0408015329 0.9821636673 0.1466829193 -0.1409688042 0.9933117215 -0.0773486281 0.1583185126 0.9968729736 -0.0322374213 -0.1018983434 0.9832012087 0.1412858550 -0.0255728165 0.9762832573 -0.1701295428 0.1350401952 0.9873067697 0.1206168111 -0.1932226527 0.9976321391 0.0099765450 0.1330986413 0.9846189668 -0.1324975685 -0.0134690175 0.9692498584 0.1973249304 -0.1326887342 0.9805267465 -0.1528154187 0.2048902827 0.9970356601 0.0316286595 -0.1794254442 0.9865013628 0.1240695451 0.0438318003 0.9662541705 -0.2055410738 0.1046795747 0.9704590676 0.1935663315 -0.2221311705 0.9943655637 -0.0677040748 0.2083195343 0.9910002716 -0.0943091514 -0.0938813230 0.9634340795 0.2158843048 -0.0826018224 0.9621417621 -0.2188569498 0.2136166282 0.9878021450 0.1180155351 -0.2477283409 0.9945139542 0.0661876447 0.1315093408 0.9659870703 -0.2060883291 0.0376299431 0.9520461175 0.2488377189 -0.2092694270 0.9795059557 -0.1575381347 0.2649785775 0.9973863181 -0.0185110709 -0.1851815234 0.9690445111 0.1974345980 -0.0015781380 0.9467345821 -0.2608099701 0.1791541579 0.9669019811 0.2058119786 -0.2881317156 0.9972524735 -0.0245521233 0.2226217647 0.9766346235 -0.1678418073 -0.0543731285 0.9413470381 0.2752799094 -0.1545383009 0.9553475635 -0.2387477234 0.2851202717 0.9928581983 0.0830618144 -0.2718781512 0.9835124765 0.1391625192 0.0985038188 0.9427035141 -0.2703245111 0.1064860563 0.9411618333 0.2762724947 -0.2852232344 0.9850257518 -0.1318174478 0.3000987974 0.9914948036 -0.0897359129 -0.1596781970 0.9448309143 0.2665317293 -0.0667911852 0.9317574777 -0.2958756511 0.2580710981 0.9715774679 0.1901297093 -0.3347885586 0.9959133590 0.0428773027 0.2060256185 0.9536593484 -0.2420730770 0.0066017465 0.9218721727 0.3178227359 -0.2347817003 0.9573755287 -0.2333592792 0.3430464889 0.9962990536 0.0217572921 -0.2659641212 0.9626133427 0.2177892583 0.0424708917 0.9195801612 -0.3206912387 0.1865306775 0.9392054424 0.2811258898 -0.3534244691 0.9917794583 -0.0789519467 0.3068184888 0.9753730731 -0.1717980373 -0.1095271253 0.9182112933 0.3246719779 -0.1453689115 0.9248644417 -0.3107129177 0.3348701556 0.9811914770 0.1478395846 -0.3555800869 0.9842605469 0.1259814658 0.1630685420 0.9253992246 -0.3085151265 0.0827165189 0.9092878256 0.3422527845 -0.3177196074 0.9671850300 -0.2028776338 0.3773524911 0.9868421105 -0.0594405693 -0.2320174254 0.9336341095 0.2922720592 -0.0303680260 0.9014370980 -0.3546756285 0.2729048702 0.9468393878 0.2629673311 -0.3995347733 0.9797002219 -0.0024928376 0.2842755166 0.9488471941 -0.2542805531 -0.0407575265 0.8943728623 0.3680307509 -0.2328848272 0.9279690893 -0.3045641764 0.3935609769 0.9712918087 0.0784651175 -0.3472305569 0.9618275445 0.2148311570 0.0993410695 0.8970675118 -0.3617772102 0.1696569196 0.9065115556 0.3476157074 -0.3908816194 0.9668713514 -0.1444951776 0.3831374215 0.9652488769 -0.1510294716 -0.1747146557 0.9013969379 0.3555203454 -0.1155306178 0.8920256880 -0.3710291004 0.3584917015 0.9573464148 0.2191087191 -0.4128710413 0.9415365641 0.0869105813 0.2354214951 0.9153320488 -0.3282675588 0.0417826689 0.8778263266 0.3949006233 -0.3251051522 0.9403732999 -0.2755370798 0.4121948117 0.9140300369 -0.0091122744 -0.3100506225 0.9299138067 0.2994069382 0.0201327605 0.8738441016 -0.3993102796 0.2641344062 0.9148320117 0.3324262302 -0.4194568369 0.9000752753 -0.0590249518 0.3631448285 0.9436301755 -0.2454943165 -0.0996807370 0.8716489547 0.4037652912 -0.2099460986 0.8936878205 -0.3685913987 0.4060442475 0.9026417050 0.1392959016 -0.4069222409 0.9166744708 0.1823843833 0.1658264922 0.8807509544 -0.3881866833 0.1347846800 0.8717871193 0.4043727366 -0.3992941129 0.9193500916 -0.2120281028 0.4115863046 0.8692153607 -0.1011835996 -0.2479857240 0.8918928876 0.3714385557 -0.0706562102 0.8597713642 -0.4201769656 0.3589517858 0.9244413228 0.2912998103 -0.4230063053 0.8337458668 0.0314734714 0.3141874748 0.9121706846 -0.3321461719 -0.0116501735 0.8493227772 0.4357053367 -0.3109002574 0.9066833961 -0.3451601649 0.4150842579 0.8175418299 0.0467188831 -0.3836593696 0.9111474565 0.2830068162 0.0811599615 0.8510033436 -0.4317889604 0.2361011464 0.8781069650 0.3951298398 -0.4185737443 0.8207463798 -0.1173153369 0.4022520119 0.8577476016 -0.1992127721 -0.1677029447 0.8551870819 0.4271593109 -0.1706810928 0.8575444032 -0.4236615061 0.4021717314 0.8411646376 0.2013840555 -0.4192070160 0.8015740728 0.1243105707 0.2403837603 0.8716503619 -0.4018068648 0.0863522737 0.8379388827 0.4510267285 -0.3918626412 0.8778752176 -0.2810274000 0.4155592936 0.7660479754 -0.0444852952 -0.3278029325 0.8885212219 0.3730880483 -0.0144824897 0.8305691782 -0.4587519215 0.3411824941 0.8905987028 0.3619698173 -0.4234294138 0.7486685033 -0.0249523501 0.3798080465 0.8733677165 -0.3060305854 -0.0747348782 0.8257040220 0.4658158943 -0.2785195496 0.8684858328 -0.4081138389 0.4127048310 0.7485663816 0.1037572640 -0.4084645839 0.8022051948 0.2244796452 0.1507658623 0.8343547680 -0.4534004496 0.1928535423 0.8397408091 0.4490717263 -0.4131397088 0.7674176588 -0.1779681984 0.4104267651 0.7469958012 -0.1384700347 -0.2436563051 0.8459989472 0.4393295910 -0.1189516398 0.8224374814 -0.4691267486 0.3927144935 0.8026768297 0.2674819381 -0.4226764310 0.7101158992 0.0661667328 0.3213255823 0.8675494677 -0.4019933930 0.0275857013 0.8073651888 0.4878765518 -0.3750274000 0.8524105098 -0.3537571076 0.4161434067 0.6916500545 0.0115917585 -0.3857832623 0.8315498100 0.3364263911 0.0505821549 0.8062685148 -0.4875380117 0.3065035727 0.8541520620 0.4270108594 -0.4214118807 0.6896468995 -0.0819102425 0.3982491231 0.7579513450 -0.2408160900 -0.1458894087 0.8083410419 0.4861546482 -0.2315857073 0.8284662164 -0.4621251754 0.4077722080 0.7029186847 0.1630890760 -0.4163736829 0.7004470700 0.1612451051 0.2280921325 0.8249029046 -0.4648854478 0.1379900218 0.8026680281 0.4935901997 -0.4043845089 0.7355276555 -0.2425903350 0.4143683340 0.6643343420 -0.0800451163 -0.3257893462 0.8410670892 0.4386683595 -0.0576985217 0.7907173760 -0.5051962627 0.3781246105 0.7838732583 0.3394051283 -0.4237918774 0.6440891974 0.0094773902 0.3740278643 0.7975713180 -0.3568254673 -0.0393877771 0.7818339273 0.5155916580 -0.3458394192 0.8339318545 -0.4272860691 0.4146989480 0.6391701954 0.0679192630 -0.4025739805 0.7184451520 0.2660543081 0.1232173369 0.7881779410 -0.5072916064 0.2565443616 0.8130739211 0.4818552786 -0.4171845278 0.6500379795 -0.1406449449 0.4068525991 0.6631529470 -0.1765356512 -0.2245021844 0.7982085321 0.4972996524 -0.1736808764 0.7897798650 -0.5066179662 0.3999913359 0.6751467259 0.2261029219 -0.4210064291 0.6248398130 0.1014962860 0.3115411173 0.8194193793 -0.4641581425 0.0743075957 0.7692103393 0.5289451959 -0.3914603991 0.7207559273 -0.3127650548 0.4160828094 0.6037544176 -0.0234017404 -0.3759864589 0.7643797774 0.3863382679 0.0111294823 0.7640848115 -0.5325192581 0.3561107598 0.7797214247 0.4177503143 -0.4229457325 0.5967952955 -0.0469518389 0.3912429875 0.6880069864 -0.2838170605 -0.1134350684 0.7625783302 0.5348907457 -0.2975543207 0.8030858199 -0.4893266601 0.4111671126 0.6031674938 0.1257277904 -0.4121986465 0.6296206710 0.1995924680 0.2030047233 0.7772354886 -0.5185265469 0.1956562794 0.7722149284 0.5263289756 -0.4103403332 0.6255981886 -0.2025279794 0.4122605568 0.5921127090 -0.1162227140 -0.3093793360 0.7925779617 0.4971726947 -0.1075853086 0.7548325540 -0.5419766598 0.3884874423 0.6619481993 0.2943098937 -0.4233537041 0.5687782395 0.0440761084 0.3617089966 0.7401316474 -0.4078391725 0.0036489904 0.7410003097 0.5558493564 -0.3726550851 0.7202258986 -0.3899479072 0.4158319864 0.5596155206 0.0326954547 -0.3945784215 0.6591175169 0.3098619418 0.0865317098 0.7437034785 -0.5518269102 0.3196955892 0.7765383213 0.4959286262 -0.4200829372 0.5638713507 -0.1043791940 0.4020636284 0.6029769160 -0.2160907279 -0.1942866071 0.7504805950 0.5462975059 -0.2342063063 0.7618978243 -0.5354847057 0.4051921332 0.5803122174 0.1863350170 -0.4184552301 0.5625505531 0.1377584913 0.2893057322 0.7716405042 -0.5196343789 0.1271168145 0.7352284416 0.5615517183 -0.4001098488 0.6138262393 -0.2690487509 0.4152653738 0.5387860365 -0.0585560242 -0.3615885386 0.7150051137 0.4382876790 -0.0350916077 0.7252103182 -0.5690012459 0.3718089726 0.6613349027 0.3692689548 -0.4237011198 0.5274803345 -0.0123187232 0.3822129578 0.6376880944 -0.3292471085 -0.0730756341 0.7191216442 0.5750992857 -0.3447112591 0.7302775124 -0.4741813969 0.4136104165 0.5282821770 0.0894805851 -0.4067537878 0.5775915977 0.2397468922 0.1683510867 0.7303948271 -0.5636809824 0.2588401370 0.7460087543 0.5510269548 -0.4149175269 0.5426055167 -0.1641126989 0.4092380665 0.5382125070 -0.1533757116 -0.2818509666 0.7447471044 0.5488531130 -0.1631633223 0.7231726749 -0.5712426977 0.3961149325 0.5686116440 0.2511781379 -0.4221533368 0.5118144620 0.0791023771 0.3452626454 0.6980856541 -0.4614945484 0.0527468836 0.7037588635 0.5885195879 -0.3852381773 0.6132508968 -0.3417860697 0.4162139833 0.4989863642 -0.0022261564 -0.3844194788 0.6156727772 0.3564272754 0.0429478878 0.7019252886 -0.5885675560 0.3476215697 0.6716996248 0.4521926514 -0.4221022894 0.497813
[...]
      <PointData Scalars="material ID">
        <DataArray type="Int32" Name="material ID" format="ascii">
 0 0 0 0 0 0 0 0 0 0 0 0 0 0 0 0 0 0 0 0 0 0 0 0 0 0 0 0 0 0 0 0 0 0 0 0 0 0 0 0 0 0 0 0 0 0 0 0 0 0 0 0 0 0 0 0 0 0 0 0 0 0 0 0 0 0 0 0 0 0 0 0 0 0 0 0 0 0 0 0 0 0 0 0 0 0 0 0 0 0 0 0 0 0 0 0 0 0 0 0 0 0 0 0 0 0 0 0 0 0 0 0 0 0 0 0 0 0 0 0 0 0 0 0 0 0 0 0 0 0 0 0 0 0 0 0 0 0 0 0 0 0 0 0 0 0 0 0 0 0 0 0 0 0 0 0 0 0 0 0 0 0 0 0 0 0 0 0 0 0 0 0 0 0 0 0 0 0 0 0 0 0 0 0 0 0 0 0 0 0 0 0 0 0 0 0 0 0 0 0 0 0 0 0 0 0 0 0 0 0 0 0 0 0 0 0 0 0 0 0 0 0 0 0 0 0 0 0 0 0 0 0 0 0 0 0 0 0 0 0 0 0 0 0 0 0 0 0 0 0 0 0 0 0 0 0 0 0 0 0 0 0 0 0 0 0 0 0 0 0 0 0 0 0 0 0 0 0 0 0 0 0 0 0 0 0 0 0 0 0 0 0 0 0 0 0 0 0 0 0 0 0 0 0 0 0 0 0 0 0 0 0 0 0 0 0 0 0 0 0 0 0 0 0 0 0 0 0 0 0 0 0 0 0 0 0 0 0 0 0 0 0 0 0 0 0 0 0 0 0 0 0 0 0 0 0 0 0 0 0 0 0 0 0 0 0 0 0 0 0 0 0 0 0 0 0 0 0 0 0 0 0 0 0 0 0 0 0 0 0 0 0 0 0 0 0 0 0 0 0 0 0 0 0 0 0 0 0 0 0 0 0 0 0 0 0 0 0 0 0 0 0 0 0 0 0 0 0 0 0 0 0 0 0 0 0 0 0 0 0 0 0 0 0 0 0 0 0 0 0 0 0 0 0 0 0 0 0 0 0 0 0 0 0 0 0 0 0 0 0 0 0 0 0 0 0 0 0 0 0 0 0 0 0 0 0 0 0 0 0 0 0 0 0 0 0 0 0 0 0 0 0 0 0 0 0 0 0 0 0 0 0 0 0 0 0 0 0 0 0 0 0 0 0 0 0 0 0 0 0 0 0 0 0 0 0 0 0 0 0 0 0 0 0 0 0 0 0 0 0 0 0 0 0 0 0 0 0 0 0 0 0 0 0 0 0 0 0 0 0 0 0 0 0 0 0 0 0 0 0 0 0 0 0 0 0 0 0 0 0 0 0 0 0 0 0 0 0 0 0 0 0 0 0 0 0 0 0 0 0 0 0 0 0 0 0 0 0 0 0 0 0 0 0 0 0 0 0 0 0 0 0 0 0 0 0 0 0 0 0 0 0 0 0 0 0 0 0 0 0 0 0 0 0 0 0 0 0 0 0 0 0 0 0 0 0 0 0 0 0 0 0 0 0 0 0 0 0 0 0 0 0 0 0 0 0 0 0 0 0 0 0 0 0 0 0 0 0 0 0 0 0 0 0 0 0 0 0 0 0 0 0 0 0 0 0 0 0 0 0 0 0 0 0 0 0 0 0 0 0 0 0 0 0 0 0 0 0 0 0 0 0 0 0 0 0 0 0 0 0 0 0 0 0 0 0 0 0 0 0 0 0 0 0 0 0 0 0 0 0 0 0 0 0 0 0 0 0 0 0 0 0 0 0 0 0 0 0 0 0 0 0 0 0 0 0 0 0 0 0 0 0 0 0 0 0 0 0 0 0 0 0 0 0 0 0 0 0 0 0 0 0 0 0 0 0 0 0 0 0 0 0 0 0 0 0 0 0 0 0 0 0 0 0 0 0 0 0 0 0 0 0 0 0 0 0 0 0 0 0 0 0 0 0 0 0 0 0 0 0 0 0 0 0 0 0 0 0 0 0 0 0 0 0 0 0 0 0 0 0 0 0 0 0 0 0 0 0 0 0 0 0 0 0 0 0 0 0 0 0 0 0 0 0 0 0 0 0 0 0 0 0 0 0 0 0 0 0 0 0 0 0 0 0 0 0 0 0 0 0 0 0 0 0 0 0 0 0 0 0 0 0 0 0 0 0 0 0 0 0 0 0 0 0 0 0 0 0 0 0 0 0 0 0 0 0 0 0 0 0 0 0 0 0 0 0 0 0 0 0 0 0 0 0 0 0 0 0 0 0 0 0 0 0 0 0 0 0 0 0 0 0 0 0 0 0 0 0 0 0 0 0 0 0 0 0 0 0 0 0 0 0 0 0 0 0 0 0 0 0 0 0 0 0 0 0 0 0 0 0 0 0 0 0 0 0 0 0 0 0 0 0 0 0 0 0 0 0 0 0 0 0 0 0 0 0 0 0 0 0 0 0 0 0 0 0 0 0 0 0 0 0 0 0 0 0 0 0 0 0 0 0 0 0 0 0 0 0 0 0 0 0 0 0 0 0 0 0 0 0 0 0 0 0 0 0 0 0 0 0 0 0 0 0 0 0 0 0 0 0 0 0 0 0 0 0 0 0 0 0 0 0 0 0 0 0 0 0 0 0 0 0 0 0 0 0 0 0 0 0 0 0 0 0 0 0 0 0 0 0 0 0 0 0 0 0 0 0 0 0 0 0 0 0 0 0 0 0 0 0 0 0 0 0 0 0 0 0 0 0 0 0 0 0 0 0 0 0 0 0 0 0 0 0 0 0 0 0 0 0 0 0 0 0 0 0 0 0 0 0 0 0 0 0 0 0 0 0 0 0 0 0 0 0 0 0 0 0 0 0 0 0 0 0 0 0 0 0 0 0 0 0 0 0 0 0 0 0 0 0 0 0 0 0 0 0 0 0 0 0 0 0 0 0 0 0 0 0 0 0 0 0 0 0 0 0 0 0 0 0 0 0 0 0 0 0 0 0 0 0 0 0 0 0 0 0 0 0 0 0 0 0 0 0 0 0 0 0 0 0 0 0 0 0 0 0 0 0 0 0 0 0 0 0 0 0 0 0 0 0 0 0 0 0 0 0 0 0 0 0 0 0 0 0 0 0 0 0 0 0 0 0 0 0 0 0 0 0 0 0 0 0 0 0 0 0 0 0 0 0 0 0 0 0 0 0 0 0 0 0 0 0 0 0 0 0 0 0 0 0 0 0 0 0 0 0 0 0 0 0 0 0 0 0 0 0 0 0 0 0 0 0 0 0 0 0 0 0 0 0 0 0 0 0 0 0 0 0 0 0 0 0 0 0 0 0 0 0 0 0 0 0 0 0 0 0 0 0 0 0 0 0 0 0 0 0 0 0 0 0 0 0 0 0 0 0 0 0 0 0 0 0 0 0 0 0 0 0 0 0 0 0 0 0 0 0 0 0 0 0 0 0 0 0 0 0 0 0 0 0 0 0 0 0 0 0 0 0 0 0 0 0 0 0 0 0 0 0 0 0 0 0 0 0 0 0 0 0 0 0 0 0 0 0 0 0 0 0 0 0 0 0 0 0 0 0 0 0 0 0 0 0 0 0 0 0 0 0 0 0 0 0 0 0 0 0 0 0 0 0 0 0 0 0 0 0 0 0 0 0 0 0 0 0 0 0 0 0 0 0 0 0 0 0 0 0 0 0 0 0 0 0 0 0 0 0 0 0 0 0 0 0 0 0 0 0 0 0 0 0 0 0 0 0 0 0 0 0 0 0 0 0 0 0 0 0 0 0 0 0 0 0 0 0 0 0 0 0 0 0 0 0 0 0 0 0 0 0 0 0 0 0 0 0 0 0 0 0 0 0 0 0 0 0 0 0 0 0 0 0 0 0 0 0 0 0 0 0 0 0 0 0 0 0 0 0 0 0 0 0 0 0 0 0 0 0 0 0 0 0 0 0 0 0 0 0 0 0 0 0 0 0 0 0 0 0 0 0 0 0 0 0 0 0 0 0 0 0 0 0 0 0 0 0 0 0 0 0 0 0 0 0 0 0 0 0 0 0 0 0 0 0 0 0 0 0 0 0 0 0 0 0 0 0 0 0 0 0 0 0 0 0 0 0 0 0 0 0 0 0 0 0 0 0 0 0 0 0 0 0 0 0 0 0 0 0 0 0 0 0 0 0 0 0 0 0 0 0 0 0 0 0 0 0 0 0 0 0 0 0 0 0 0 0 0 0 0 0 0 0 0 0 0 0 0 0 0 0 0 0 0 0 0 0 0 0 0 0 0 0 0 0 0 0 0 0 0 0 0 0 0 0 0 0 0 0 0 0 0 0 0 0 0 0 0 0 0 0 0 0 0 0 0 0 0 0 0 0 0 0 0 0 0 0 0 0 0 0 0 0 0 0 0 0 0 0 0 0 0 0 0 0 0 0 0 0 0 0 0 0 0 0 0 0 0 0 0 0 0 0 0 0 0 0 0 0 0 0 0 0 0 0 0 0 0 0 0 0 0 0 0 0 0 0 0 0 0 0 0 0 0 0 0 0
        </DataArray>
        <DataArray type="Float32" Name="velocity" NumberOfComponents="3" format="ascii">
 -0.0101951214 -0.0034972383 -0.0402331135 -0.0098235754 -0.0033952938 -0.0395004980 -0.0109067480 -0.0037031525 -0.0399683607 -0.0095235006 -0.0033033317 -0.0404154284 -0.0103671346 -0.0035546992 -0.0389661163 -0.0107631196 -0.0036565858 -0.0408052918 -0.0090882382 -0.0031837268 -0.0395850316 -0.0112934469 -0.0038182431 -0.0393242838 -0.0097374468 -0.0033600276 -0.0411512769 -0.0096663014 -0.0033558468 -0.0386105062 -0.0115143591 -0.0038741213 -0.0405009151 -0.0087408189 -0.0030793342 -0.0403190054 -0.0110062580 -0.0037410048 -0.0385138432 -0.0105504621 -0.0035908006 -0.0415496487 -0.0087954445 -0.0031042098 -0.0388794725 -0.0119430736 -0.0040027129 -0.0396309724 -0.0090046516 -0.0031488656 -0.0412865777 -0.0101237731 -0.0034910451 -0.0379981466 -0.0115631931 -0.0038832902 -0.0412591532 -0.0082280482 -0.0029359247 -0.0397329246 -0.0117683204 -0.0039594033 -0.0385604559 -0.0099048549 -0.0034025130 -0.0420209113 -0.0089696961 -0.0031591636 -0.0381053305 -0.0123003983 -0.0041009602 -0.0403034838 -0.0082661217 -0.0029391962 -0.0409307882 -0.0109088299 -0.0037182685 -0.0376964359 -0.0111775614 -0.0037676442 -0.0420380684 -0.0080400571 -0.0028872776 -0.0389031705 -0.0124347419 -0.0041477579 -0.0390134450 -0.0090309797 -0.0031513360 -0.0420823384 -0.0095553377 -0.0033314946 -0.0374381064 -0.0123059132 -0.0040968838 -0.0411890349 -0.0077061978 -0.0027831822 -0.0401995713 -0.0118159961 -0.0039780513 -0.0377833458 -0.0104117365 -0.0035440895 -0.0426293569 -0.0082269263 -0.0029466992 -0.0379964994 -0.0128578467 -0.0042642319 -0.0397878106 -0.0081421016 -0.0028988599 -0.0416733272 -0.0104727965 -0.0035973459 -0.0370376162 -0.0119199697 -0.0039800426 -0.0421409730 -0.0074382044 -0.0027124153 -0.0392384802 -0.0126353774 -0.0042101093 -0.0382665340 -0.0093846510 -0.0032481196 -0.0428198315 -0.0088169292 -0.0031213504 -0.0371620618 -0.0129537681 -0.0042853688 -0.0407878375 -0.0074281585 -0.0026991443 -0.0408640569 -0.0115563441 -0.0039083408 -0.0370315474 -0.0111313628 -0.0037484480 -0.0429672930 -0.0075268642 -0.0027445970 -0.0381840657 -0.0132113556 -0.0043701722 -0.0390851271 -0.0083009346 -0.0029392570 -0.0424846567 -0.0097910707 -0.0034047433 -0.0365620807 -0.0126688841 -0.0041964639 -0.0419065512 -0.0070068839 -0.0025850572 -0.0397983732 -0.0125810370 -0.0041996608 -0.0374612424 -0.0100045963 -0.0034222255 -0.0434153856 -0.0080207471 -0.0028928678 -0.0371612168 -0.0134614279 -0.0044351053 -0.0401543225 -0.0073789695 -0.0026798934 -0.0416675467 -0.0110223668 -0.0037593808 -0.0363616989 -0.0119598815 -0.0039860808 -0.0429884519 -0.0069374089 -0.0025726891 -0.0386138143 -0.0133608992 -0.0044182920 -0.0382707934 -0.0087290635 -0.0030569818 -0.0432889037 -0.0089502239 -0.0031649966 -0.0363180951 -0.0133387164 -0.0043919911 -0.0413903170 -0.0067591094 -0.0025092672 -0.0405313040 -0.0122735339 -0.0041165897 -0.0366512870 -0.0108248087 -0.0036555689 -0.0437347474 -0.0072659337 -0.0026745960 -0.0374203111 -0.0138038017 -0.0045384013 -0.0393653651 -0.0075630262 -0.0027269926 -0.0425628437 -0.0102486668 -0.0035405473 -0.0358605306 -0.0127919777 -0.0042268235 -0.0426836135 -0.0064975582 -0.0024424603 -0.0392398446 -0.0132989426 -0.0044061077 -0.0373951080 -0.0094297255 -0.0032544496 -0.0438534855 -0.0080505996 -0.0029066992 -0.0363374205 -0.0138753088 -0.0045506242 -0.0406639086 -0.0067047166 -0.0024880927 -0.0414021242 -0.0116833296 -0.0039519451 -0.0359107874 -0.0117492795 -0.0039208998 -0.0437305836 -0.0066244788 -0.0024874074 -0.0379060588 -0.0139685098 -0.0045913452 -0.0384771595 -0.0080070685 -0.0028487000 -0.0434585163 -0.0093424287 -0.0032820444 -0.0356150003 -0.0135377420 -0.0044446200 -0.0420925224 -0.0062248637 -0.0023591772 -0.0400262351 -0.0130063110 -0.0043278559 -0.0364988447 -0.0103113400 -0.0035073128 -0.0438757340 -0.0071935674 -0.0026589382 -0.0366206863 -0.0142532277 -0.0046646266 -0.0397958251 -0.0068588035 -0.0025260550 -0.0423813285 -0.0108150022 -0.0037058371 -0.0354281434 -0.0127028213 -0.0041962392 -0.0434657629 -0.0061348524 -0.0023425988 -0.0385782707 -0.0139439746 -0.0045903725 -0.0375275421 -0.0088103566 -0.0030771697 -0.0437805201 -0.0083756848 -0.0030046852 -0.0356030099 -0.0141412262 -0.0046229446 -0.0412886697 -0.0061287207 -0.0023256901 -0.0409488657 -0.0123629452 -0.0041484054 -0.0356878843 -0.0112391874 -0.0037744563 -0.0437395727 -0.0064629488 -0.0024459610 -0.0371377950 -0.0144632584 -0.0047310270 -0.0388372200 -0.0072751683 -0.0026392399 -0.0433677077 -0.0098958752 -0.0034435254 -0.0351998367 -0.0135767464 -0.0044507838 -0.0428795907 -0.0058105305 -0.0022442522 -0.0394033959 -0.0137079494 -0.0045289188 -0.0365447046 -0.0097407136 -0.0033451568 -0.0436250254 -0.0073581428 -0.0027112711 -0.0358221385 -0.0145800768 -0.0047549067 -0.0403464823 -0.0062225647 -0.0023459592 -0.0419914008 -0.0113991308 -0.0038748838 -0.0352069329 -0.0122294164 -0.0040594475 -0.0436119444 -0.0058973005 -0.0022791257 -0.0378428823 -0.0144983395 -0.0047475975 -0.0378196151 -0.0081787405 -0.0028972986 -0.0435630247 -0.0089553133 -0.0031739542 -0.0351449113 -0.0142783237 -0.0046576411 -0.0420159625 -0.0056549122 -0.0021934730 -0.0403610703 -0.0130577749 -0.0043480962 -0.0356426875 -0.0106593636 -0.0036097146 -0.0434804409 -0.0064460564 -0.0024463320 -0.0363211472 -0.0148513234 -0.0048393063 -0.0393203590 -0.0065585840 -0.0024353701 -0.0430898999 -0.0104607838 -0.0036072472 -0.0349487453 -0.0133102391 -0.0043707819 -0.0434303748 -0.0055046192 -0.0021609750 -0.0386971578 -0.0143418761 -0.0047094592 -0.0367612256 -0.0091596609 -0.0031798390 -0.0434008703 -0.0079427521 -0.0028826641 -0.0352553367 -0.0147974703 -0.0048131063 -0.0410018249 -0.0056747916 -0.0021922646 -0.0414429115 -0.0120088212 -0.0040504901 -0.0351071555 -0.0116082179 -0.0038827013 -0.0433732851 -0.0057736784 -0.0022487256 -0.0370484199 -0.0149556765 -0.0048761530 -0.0382406973 -0.0075080754 -0.0027061558 -0.0433557669 -0.0095371770 -0.0033428569 -0.0348445138 -0.0142799444 -0.0046529534 -0.0428223007 -0.0052804249 -0.0020903659 -0.0396783072 -0.0137913493 -0.0045580016 -0.0357389992 -0.0100876786 -0.0034469942 -0.0432705131 -0.0068129861 -0.0025564350 -0.0355697509 -0.0151407501 -0.0049186132 -0.0399075952 -0.0058987343 -0.0022489226 -0.0426335994 -0.0110327542 -0.0037723549 -0.0347979154 -0.0126435345 -0.0041803996 -0.0432819649 -0.0052978946 -0.0021065677 -0.0379274907 -0.0148852875 -0.0048631172 -0.0371195773 -0.0085569310 -0.0030080327 -0.0432185802 -0.0085754119 -0.0030666220 -0.0348801781 -0.0149129607 -0.0048414297 -0.0417560903 -0.0052223626 -0.0020666581 -0.0407807499 -0.0126600217 -0.0042373970 -0.0351031465 -0.0110122646 -0.0037129526 -0.0431733246 -0.0057800442 -0.0022559497 -0.0362038353 -0.0153182515 -0.0049768357 -0.0387678789 -0.0067797943 -0.0024984451 -0.0431537285 -0.0101059802 -0.0035073880 -0.0346416907 -0.0138188245 -0.0045185141 -0.0431520537 -0.0049986056 -0.0020142893 -0.0389272095 -0.0145334546 -0.0047694278 -0.0359804508 -0.0095148777 -0.0032836782 -0.0431036641 -0.0075170659 -0.0027616731 -0.0350718917 -0.0153392691 -0.0049712273 -0.0405893773 -0.0053416623 -0.0020930432 -0.0420093953 -0.0116239404 -0.0039424745 -0.0347257417 -0.0119876042 -0.0039933627 -0.0430939213 -0.0051845759 -0.0020793138 -0.0371034048 -0.0153325628 -0.0049884526 -0.0375927018 -0.0079181345 -0.0028257286 -0.0430593559 -0.0091745242 -0.0032402560 -0.0346140050 -0.0149052542 -0.0048339289 -0.0425837621 -0.0048628001 -0.0019682052 -0.0400399261 -0.0133684587 -0.0044401429 -0.0351909418 -0.0104357473 -0.0035485162 -0.0430149103 -0.0063040913 -0.0024110050 -0.0354739220 -0.0155927372 -0.0050516550 -0.0393863937 -0.0059875402 -0.0022725833 -0.0429191474 -0.0106733640 -0.0036710377 -0.0345130420 -0.0130737099 -0.0043056005 -0.0430082278 -0.0048022686 -0.0019630850 -0.0381228091 -0.0151586258 -0.0049462918 -0.0363790753 -0.0089281696 -0.0031162006 -0.0429635152 -0.0081831858 -0.0029551044 -0.0347169118 -0.0154521354 -0.0049986662 -0.0413641976 -0.0048894414 -0.0019679559 -0.0412753478 -0.0122479328 -0.0041215586 -0.0347240279 -0.0113733158 -0.0038180421 -0.0429424982 -0.0051854956 -0.0020851652 -0.0362290532 -0.0156877437 -0.0050867604 -0.0381594730 -0.0072277825 -0.0026285995 -0.0429047742 -0.0097513591 -0.0034069868 -0.0344276388 -0.0143308078 -0.0046673035 -0.0428608874 -0.0045890055 -0.0018947192 -0.0392438044 -0.0141486604 -0.0046628399 -0.0353795057 -0.0098658134 -0.0033857913 -0.0428843253 -0.0070703851 -0.0026340682 -0.0349806054 -0.0157866003 -0.0051027966 -0.0400895020 -0.0051970357 -0.0020481360 -0.0425417947 -0.0112517662 -0.0038374528 -0.0344464676 -0.0123835763 -0.0041084235 -0.0428709358 -0.0046861769 -0.0019352164 -0.0372703905 -0.0156225734 -0.0050761066 -0.0368999671 -0.0083140191 -0.0029407616 -0.0428368101 -0.0088039283 -0.0031348925 -0.0344590902 -0.0154629730 -0.0049963050 -0.0422203769 -0.0045309879 -0.0018702003 -0.0404751873 -0.0129196260 -0.0043138782 -0.0347932961 -0.0107869225 -0.0036505536 -0.0428181700 -0.0057757488 -0.0022593667 -0.0354762309 -0.0159590197 -0.0051604772 -0.0388063709 -0.0064699871 -0.0024122164 -0.0427343935 -0.0103187826 -0.0035706139 -0.0343043192 -0.0135297084 -0.0044379790 -0.0427709659 -0.0043929960 -0.0018438305 -0.0384047295 -0.0150008200 -0.0049054009 -0.0356911482 -0.0092897525 -0.0032211979 -0.0427709678 -0.0077739065 -0.0028382624 -0.0346210142 -0.0159055725 -0.0051319004 -0.0408779990 -0.0046380784 -0.0018922239 -0.0418380433 -0.0118542341 -0.0040104094 -0.0344369909 -0.0117454109 -0.0039260203 -0.0427555765 -0.0046599721 -0.0019334591 -0.0363685755 -0.0159815468 -0.0051752532 -0.0375057917 -0.0076577687 -0.0027532344 -0.0427111053 -0.0093936012 -0.0033052961 -0.0342745181 -0.0148704900 -0.0048240233 -0.0425726546 -0.0042563387 -0.0017967693 -0.0396320920 -0.0136548852 -0.0045239326 -0.0349419636 -0.0102149168 -0.0034870762 -0.0427122983 -0.0065968529 -0.0024983232 -0.0349572658 -0.0161553099 -0.0052121988 -0.0395277153 -0.0056323869 -0.0021732126 -0.0425199534 -0.0108893002 -0.0037347875 -0.0342344172 -0.0127997163 -0.0042290786 -0.0426782539 -0.0042684130 -0.0018136957 -0.0375256114 -0.0157858894 -0.0051276312 -0.0361713476 -0.0086945622 -0.0030510617 -0.0426659280 -0.0084217940 -0.0030258789 -0.0343571835 -0.0159461460 -0.0051379397 -0.0417550129 -0.0042669589 -0.0017912156 -0.0409780971 -0.0124949052 -0.0041939592 -0.0344854648 -0.0111439267 -0.0037540368 -0.0426569488 -0.0052183058 -0.0020988667 -0.0355584176 -0.0162564863 -0.0052498392 -0.0381811967 -0.0069436363 -0.0025491815 -0.0425720515 -0.0099657703 -0.0034703053 -0.0341480217 -0.0140154801 -0.0045788140 -0.0425474328 -0.0040555760 -0.0017447463 -0.0387570649 -0.0144683733 -0.0047558208 -0.0351870725 -0.0096444925 -0.0033239791 -0.0426179288 -0.0073435262 -0.0027150346 -0.0345767954 -0.0162838711 -0.0052439964 -0.0403253007 -0.0047329402 -0.0019171139 -0.0422031875 -0.0114755928 -0.0039031749 -0.0342135496 -0.0121317201 -0.0040379167 -0.0425938454 -0.0042144414 -0.0018041116 -0.0366016198 -0.0162142362 -0.0052464734 -0.0368105268 -0.0080663646 -0.0028714566 -0.0425603308 -0.0090294433 -0.0032014864 -0.0341655750 -0.0154396569 -0.0049893083 -0.0422681848 -0.0039858520 -0.0017162593 -0.0400836866 -0.0131891860 -0.0043924808 -0.0345985748 -0.0105649337 -0.0035884322 -0.0425701624 -0.0060927747 -0.0023534396 -0.0349922386 -0.0164588376 -0.0053031856 -0.0389204771 -0.0061560295 -0.0023242532 -0.0424001026 -0.0105332016 -0.0036336429 -0.0340703546 -0.0132396990 -0.0043564889 -0.0424991890 -0.0039205199 -0.0017117747 -0.0378515205 -0.0153653615 -0.0050108819 -0.0355557788 -0.0090629398 -0.0031576549 -0.0425287909 -0.0080244841 -0.0029122462 -0.0342966001 -0.0163481226 -0.0052567969 -0.0412076108 -0.0040702380 -0.0017311780 -0.0415387316 -0.0120911092 -0.0040796347 -0.0342418527 -0.0115097097 -0.0038599010 -0.0425173830 -0.0046352550 -0.0019305332 -0.0357164390 -0.0164981340 -0.0053234278 -0.0375175892 -0.0073900558 -0.0026781156 -0.0424436189 -0.0096112014 -0.0033693013 -0.0340306621 -0.0145337905 -0.0047290118 -0.0423200240 -0.0037776315 -0.0016623469 -0.0391693963 -0.0139529687 -0.0046104489 -0.0347898029 -0.0099952841 -0.0034254617 -0.0424907689 -0.0068880730 -0.0025843272 -0.0345770544 -0.0165978803 -0.0053379430 -0.0397255987 -0.0052843246 -0.0020755886 -0.0421658598 -0.0111084297 -0.0037989363 -0.0340367607 -0.0125356917 -0.0041547984 -0.0424451695 -0.0038462231 -0.0016964764 -0.0369089580 -0.0162652179 -0.0052656952 -0.0360920885 -0.0084570102 -0.0029843436 -0.0424383293 -0.0086555796 -0.0030946692 -0.0340913868 -0.0160276144 -0.0051602494 -0.0419224691 -0.0037660994 -0.0016499267 -0.0405950990 -0.0127505035 -0.0042683420 -0.0343240729 -0.0109187085 -0.0036907445 -0.0424471424 -0.0055559067 -0.0021987882 -0.0350831895 -0.0167086006 -0.0053789722 -0.0382773608 -0.0066496634 -0.0024665474 -0.0423013169 -0.0101803113 -0.0035331871 -0.0339425801 -0.0137072092 -0.0044917916 -0.0423213012 -0.0036318824 -0.0016264866 -0.0382356915 -0.0147993240 -0.0048514744 -0.0350810473 -0.0094223109 -0.0032615183 -0.0424143691 -0.0076082307 -0.0027929514 -0.0342713494 -0.0166797665 -0.0053558184 -0.0406057074 -0.0043406210 -0.0018069755 -0.0418199340 -0.0117043837 -0.0039699018 -0.0340463289 -0.0118874335 -0.0039691125 -0.0423902357 -0.0040488860 -0.0017607419 -0.0359535637 -0.0166934450 -0.0053839552 -0.0368169866 -0.0078123917 -0.0027999886 -0.0423385866 -0.0092519722 -0.0032667629 -0.0339441054 -0.0150856041 -0.0048889495 -0.0420730189 -0.0035487098 -0.0015936701 -0.0396358754 -0.0134695622 -0.0044737622 -0.0344704004 -0.0103450046 -0.0035265273 -0.0423807728 -0.0064038152 -0.0024450837 -0.0346195233 -0.0168578985 -0.0054166152 -0.0390914733 -0.0058305870 -0.0022327005 -0.0421117539 -0.0107493996 -0.0036968033 -0.0338957224 -0.0129609971 -0.0042777771 -0.0423004677 -0.0035413850 -0.0016066547 -0.0372750313 -0.0157288418 -0.0051155248 -0.0355039136 -0.0088331879 -0.0030929522 -0.0423360944 -0.0082685771 -0.0029838934 -0.0340466294 -0.0165877819 -0.0053237424 -0.0414942734 -0.0036049464 -0.0016000923 -0.0411563666 -0.0123349508 -0.0041505061 -0.0341019809 -0.0112791990 -0.0037949088 -0.0423359004 -0.0049865867 -0.0020344517 -0.0352323608 -0.0169141450 -0.0054422715 -0.0376025700 -0.0071135511 -0.0026002020 -0.0422186501 -0.0098275729 -0.0034325908 -0.0338436097 -0.0142055627 -0.0046360082 -0.0421336371 -0.0033927078 -0.0015550727 -0.0386700407 -0.0142637269 -0.0047002167 -0.0346980164 -0.0097757260 -0.0033635735 -0.0423154266 -0.0071691559 -0.0026668973 -0.0342789454 -0.0169543538 -0.0054386894 -0.0399688015 -0.0049264390 -0.0019749563 -0.0418413662 -0.0113310928 -0.0038637867 -0.0338880108 -0.0122804814 -0.0040826867 -0.0422685801 -0.0035477389 -0.0016148499 -0.0362779580 -0.0166746215 -0.0053831274 -0.0361012046 -0.0082143213 -0.0029159010 -0.0422498898 -0.0088849184 -0.0031618141 -0.0338833676 -0.0156684168 -0.0050580107 -0.0417904358 -0.0033601444 -0.0015362415 -0.0401544903 -0.0130152823 -0.0043450503 -0.0342110711 -0.0106965417 -0.0036280431 -0.0422819051 -0.0058877413 -0.0022964324 -0.0347053678 -0.0170731613 -0.0054826189 -0.0384299000 -0.0063446143 -0.0023805320 -0.0420622822 -0.0103953369 -0.0035959141 -0.0337831145 -0.0134114173 -0.0044079880 -0.0421518856 -0.0032886440 -0.0015314765 -0.0376892048 -0.0151430939 -0.0049504364 -0.0350330078 -0.0091982331 -0.0031982783 -0.0422475989 -0.0078648321 -0.0028681421 -0.0340285913 -0.0169916210 -0.0054433117 -0.0409190803 -0.0039578978 -0.0016995824 -0.0414380011 -0.0119386365 -0.0040379303 -0.0339207180 -0.0116495106 -0.0039018515 -0.0422309309 -0.0043898660 -0.0018618455 -0.0354450971 -0.0170830094 -0.0054952475 -0.0368959789 -0.0075509231 -0.0027261739 -0.0421474368 -0.0094719551 -0.0033310154 -0.0337685525 -0.0147369994 -0.0047898522 -0.0419251110 -0.0031943918 -0.001495