<?xml version="1.0"?>
<VTKFile type="UnstructuredGrid" version="0.1" byte_order="LittleEndian">
  <UnstructuredGrid>
    <FieldData>
      <DataArray type="Float32" Name="TIME"  NumberOfTuples="1" format="ascii"> 0.3500000000 </DataArray>
      <DataArray type="Int32"   Name="STEP"  NumberOfTuples="1" format="ascii"> 35000 </DataArray>
    </FieldData>
    <Piece NumberOfPoints="2004" NumberOfCells="2004">
      <Points>
        <DataArray type="Float32" NumberOfComponents="3" format="ascii">
 0.0311098687 0.9995147484 -0.0254323750 -0.0409336477 0.9984916877 0.0115382349 0.0056773362 0.9959745730 -0.0957649189 0.0503224615 0.9962615485 0.0409326997 -0.0942335711 0.9993285779 -0.0420645371 0.0881553582 0.9972477544 -0.0818044803 -0.0300566801 0.9906597481 0.0842122135 -0.0567604807 0.9910394327 -0.1338474796 0.1225343235 0.9980118931 0.0195547357 -0.1286157771 0.9974433456 0.0273605369 0.0606704249 0.9871507145 -0.1560773889 0.0445046366 0.9842875678 0.1183235422 -0.1379522635 0.9949609481 -0.1051723803 0.1614719453 0.9986214642 -0.0609870280 -0.0982111445 0.9853117260 0.1133620485 -0.0228410630 0.9777386323 -0.1982707373 0.1386627954 0.9893770569 0.0919577081 -0.1899380956 0.9994646372 -0.0176966318 0.1359449086 0.9861558560 -0.1611432996 -0.0096100552 0.9714797395 0.1691588848 -0.1299034549 0.9820170901 -0.1806371062 0.2082393942 0.9989193877 0.0027354128 -0.1757907572 0.9885745028 0.0963767113 0.0464548127 0.9676359232 -0.2338737824 0.1085264273 0.9726826882 0.1650353533 -0.2190846861 0.9960339694 -0.0952811559 0.2112824549 0.9926186778 -0.1231993271 -0.0899649344 0.9657019514 0.1879770435 -0.0800189756 0.9634936849 -0.2467930763 0.2172308693 0.9898680551 0.0891143798 -0.2442710428 0.9964641434 0.0386878408 0.1341302675 0.9673689040 -0.2346894143 0.0416470274 0.9543853064 0.2205508267 -0.2064982529 0.9809852721 -0.1851227338 0.2681736017 0.9991652332 -0.0475890249 -0.1813214126 0.9712722077 0.1697956976 0.0008759584 0.9479992736 -0.2889618733 0.1830382951 0.9691524622 0.1770599669 -0.2849526167 0.9990108763 -0.0519331356 0.2253593606 0.9780983108 -0.1967450733 -0.0502742835 0.9437406767 0.2472975907 -0.1520159885 0.9566565743 -0.2664487366 0.2886268564 0.9948514469 0.0539309158 -0.2681966721 0.9856161270 0.1117594697 0.1009283424 0.9439495731 -0.2987748468 0.1105871930 0.9435598273 0.2477971378 -0.2823729212 0.9865581873 -0.1591808747 0.3030753040 0.9931241371 -0.1189086873 -0.1556057620 0.9472046288 0.2388651441 -0.0644440342 0.9329473925 -0.3237957163 0.2619066646 0.9737960025 0.1611258830 -0.3314023812 0.9978131993 0.0156417611 0.2085360691 0.9549664290 -0.2708765083 0.0108311994 0.9243563611 0.2896941250 -0.2322425237 0.9586947608 -0.2608184634 0.3463646864 0.9981639253 -0.0075581162 -0.2620410630 0.9648828094 0.1904115623 0.0447416600 0.9207193476 -0.3489206239 0.1906463650 0.9416147943 0.2524090918 -0.3504118154 0.9934223202 -0.1061207697 0.3095435793 0.9768296111 -0.2009568838 -0.1052760417 0.9207082888 0.2969072490 -0.1430667607 0.9260220002 -0.3383773248 0.3385754436 0.9833219548 0.1185802181 -0.3519386606 0.9863352422 0.0988336797 0.1653759722 0.9265657532 -0.3371267808 0.0870208083 0.9118245932 0.3139170467 -0.3150867434 0.9685673059 -0.2301032948 0.3804216570 0.9885363814 -0.0888407183 -0.2278654650 0.9360610724 0.2648507840 -0.0282007854 0.9025036860 -0.3826431203 0.2769642954 0.9492116734 0.2339696273 -0.3962871257 0.9815035807 -0.0294952973 0.2867482529 0.9501296621 -0.2833137845 -0.0363732792 0.8969622465 0.3401050093 -0.2305634680 0.9291383664 -0.3319667207 0.3970533945 0.9732769445 0.0490470630 -0.3433161737 0.9640896359 0.1877044151 0.1014860063 0.8981209698 -0.3901333165 0.1739773071 0.9090608537 0.3190191005 -0.3880693237 0.9683756253 -0.1714961638 0.3859260658 0.9667502759 -0.1804012299 -0.1703682965 0.9039580589 0.3279907912 -0.1134129455 0.8930566377 -0.3987154182 0.3624159774 0.9596274601 0.1898266485 -0.4093483133 0.9435282157 0.0600288289 0.2376682034 0.9164579943 -0.3570797991 0.0462492876 0.8804735306 0.3667563776 -0.3226945767 0.9416024194 -0.3026830855 0.4154196847 0.9158310142 -0.0384662180 -0.3058763332 0.9323547149 0.2722328131 0.0221634188 0.8748174049 -0.4273742250 0.2684075865 0.9173506126 0.3035223941 -0.4163808658 0.9017594030 -0.0857981250 0.3656442516 0.9449322797 -0.2747585402 -0.0951861346 0.8743128620 0.3760679279 -0.2078205389 0.8947225749 -0.3959916246 0.4097246070 0.9047553549 0.1099837941 -0.4031061762 0.9188674490 0.1555361118 0.1678904436 0.8817497326 -0.4167121628 0.1392800398 0.8744556054 0.3759558756 -0.3966879508 0.9207120436 -0.2389026799 0.4145296832 0.8708224112 -0.1304406055 -0.2435899978 0.8944865425 0.3441536708 -0.0686888417 0.8606994499 -0.4479326251 0.3630981725 0.9268745726 0.2620851661 -0.4196513627 0.8356207950 0.0048503286 0.3164219804 0.9132895722 -0.3611933316 -0.0070575546 0.8520552785 0.4077847719 -0.3087026172 0.9077660767 -0.3722782693 0.4184823538 0.8194607126 0.0175590099 -0.3795346539 0.9135528115 0.2560981376 0.0830911773 0.8519091154 -0.4599917465 0.2405675484 0.8807573855 0.3663889462 -0.4156749470 0.8223078633 -0.1439236533 0.4048949775 0.8591479738 -0.2284163021 -0.1631359259 0.8578993658 0.3997051263 -0.1687238964 0.8584637436 -0.4511056312 0.4060438192 0.8434092051 0.1722129413 -0.4155666643 0.8036447574 0.0977429236 0.2424057695 0.8726215082 -0.4305417711 0.0909916618 0.8407050743 0.4228294317 -0.3894673092 0.8790919671 -0.3078368987 0.4186786871 0.7677747886 -0.0735374861 -0.3234017020 0.8911172371 0.3460550891 -0.0126331098 0.8314168318 -0.4866180870 0.3455464308 0.8931806975 0.3328805028 -0.4202458015 0.7504247109 -0.0513945291 0.3821231464 0.8745426458 -0.3351974456 -0.0700491171 0.8284991387 0.4381383973 -0.2765143800 0.8694363944 -0.4352503423 0.4162793126 0.7506055784 0.0747496397 -0.4045170394 0.8044871109 0.1978770230 0.1526308020 0.8352160153 -0.4817815142 0.1974863956 0.8425043756 0.4205439626 -0.4104258871 0.7688515261 -0.2044803888 0.4132582873 0.7485245348 -0.1674656843 -0.2390514095 0.8487358286 0.4121276637 -0.1171334249 0.8232618208 -0.4966552571 0.3967901633 0.8050606346 0.2384204770 -0.4192125340 0.7120642141 0.0398028513 0.3233467228 0.8685213690 -0.4309679386 0.0323390259 0.8102082734 0.4599236862 -0.3728547138 0.8534742927 -0.3805640840 0.4194363346 0.6934952098 -0.0173058409 -0.3814930443 0.8340678805 0.3096915858 0.0523434299 0.8070564783 -0.5155523516 0.3110679264 0.8568707078 0.3981042695 -0.4184017772 0.6912832418 -0.1082338452 0.4007665438 0.7592642136 -0.2697967626 -0.1411405697 0.8111780549 0.4587318580 -0.2297456099 0.8293037116 -0.4893209409 0.4115296432 0.7050829407 0.1341923601 -0.4126179758 0.7025958495 0.1348816062 0.2299216736 0.8257410591 -0.4934837074 0.1427604494 0.8055247167 0.4653085366 -0.4018682941 0.7368255415 -0.2690617351 0.4173807463 0.6659864307 -0.1088790765 -0.3211859911 0.8438014325 0.4117287652 -0.0559905824 0.7914666399 -0.5328455694 0.3824213505 0.7864084602 0.3104275453 -0.4205005069 0.6459181844 -0.0167435457 0.3761887408 0.7986392965 -0.3858145273 -0.0345486005 0.7847345290 0.4878978353 -0.3438920318 0.8348411448 -0.4541431297 0.4181657380 0.6411341433 0.0391362899 -0.3984972186 0.7208149453 0.2396098284 0.1249180500 0.7889253407 -0.5354904912 0.2612780223 0.8159075263 0.4531881143 -0.4143537923 0.6515507002 -0.1668976440 0.4095690982 0.6646016025 -0.2053434000 -0.2197185815 0.8010679468 0.4701392741 -0.1719767332 0.7905245032 -0.5339095217 0.4039426651 0.6774437203 0.1972881580 -0.4174324198 0.6268627892 0.0753067311 0.3133726094 0.8202602527 -0.4930008248 0.0791874570 0.7721407082 0.5009291305 -0.3891591940 0.7219061519 -0.3392444855 0.4192702042 0.6055260270 -0.0521136978 -0.3715418091 0.7670033119 0.3597146069 0.0127538347 0.7647775265 -0.5603233793 0.3606480030 0.7824214194 0.3888484631 -0.4198264846 0.5985054886 -0.0730753217 0.3936299771 0.6892292977 -0.3126285578 -0.1085359504 0.7655186009 0.5074644984 -0.2957968289 0.8038651228 -0.5162664026 0.4148119790 0.6052532892 0.0970311156 -0.4083238789 0.6318504741 0.1733651425 0.2046708239 0.7779603605 -0.5469470368 0.2005274832 0.7751414850 0.4979343704 -0.4076989466 0.6269806565 -0.2287497444 0.4151634918 0.5936886930 -0.1448977728 -0.3045956076 0.7954359272 0.4702845353 -0.1059892171 0.7555036901 -0.5693970718 0.3926483132 0.6643887906 0.2655577566 -0.4199546619 0.5706803081 0.0180122843 0.3637146324 0.7410920813 -0.4366690552 0.0086122886 0.7439864409 0.5281092880 -0.3705907065 0.7212137451 -0.4164833702 0.4191923599 0.5615054356 0.0040768878 -0.3903661044 0.6615798683 0.2835176484 0.0880969022 0.7443566136 -0.5798192400 0.3244728713 0.7794025523 0.4671446414 -0.4171391780 0.5654606431 -0.1304416831 0.4046600553 0.6043422850 -0.2447567100 -0.1893518715 0.7534437919 0.5191446770 -0.2325898509 0.7625808432 -0.5625316517 0.4090234023 0.5825256944 0.1577044109 -0.4147687239 0.5646501172 0.1116921158 0.2909681435 0.7723642683 -0.5483077922 0.1320971417 0.7382283392 0.5334450461 -0.3976723129 0.6150687011 -0.2952766305 0.4183462750 0.5404836996 -0.0871283293 -0.3569835942 0.7177384310 0.4117235362 -0.0335781436 0.7258255923 -0.5965814189 0.3761998623 0.6639332185 0.3405687508 -0.4204742121 0.5292636516 -0.0382940682 0.3844616721 0.6388146577 -0.3579245603 -0.0680524789 0.7221473089 0.5476405329 -0.3429055941 0.7310882283 -0.5008231727 0.4171456253 0.5302917910 0.0609344651 -0.4027548086 0.5799062086 0.2136122228 0.1698798065 0.7310241634 -0.5918961598 0.2637873397 0.7489883030 0.5224935893 -0.4121565804 0.5440690553 -0.1901458074 0.4120281602 0.5397102773 -0.1819276633 -0.2769078623 0.7477144673 0.5219809442 -0.1616560892 0.7237814282 -0.5984257126 0.4001453828 0.5709616603 0.2225995818 -0.4186456917 0.5137904833 0.0531546626 0.3471046406 0.6989328844 -0.4901850124 0.0578109275 0.7068146127 0.5607071650 -0.3830238123 0.6143402931 -0.3680578508 0.4194684823 0.5008028304 -0.0307178953 -0.3800634840 0.6182334931 0.3301430447 0.0444014457 0.7025004814 -0.6163379066 0.3522667185 0.6744723186 0.4235442254 -0.4190484751 0.49
[...]
      <PointData Scalars="material ID">
        <DataArray type="Int32" Name="material ID" format="ascii">
 0 0 0 0 0 0 0 0 0 0 0 0 0 0 0 0 0 0 0 0 0 0 0 0 0 0 0 0 0 0 0 0 0 0 0 0 0 0 0 0 0 0 0 0 0 0 0 0 0 0 0 0 0 0 0 0 0 0 0 0 0 0 0 0 0 0 0 0 0 0 0 0 0 0 0 0 0 0 0 0 0 0 0 0 0 0 0 0 0 0 0 0 0 0 0 0 0 0 0 0 0 0 0 0 0 0 0 0 0 0 0 0 0 0 0 0 0 0 0 0 0 0 0 0 0 0 0 0 0 0 0 0 0 0 0 0 0 0 0 0 0 0 0 0 0 0 0 0 0 0 0 0 0 0 0 0 0 0 0 0 0 0 0 0 0 0 0 0 0 0 0 0 0 0 0 0 0 0 0 0 0 0 0 0 0 0 0 0 0 0 0 0 0 0 0 0 0 0 0 0 0 0 0 0 0 0 0 0 0 0 0 0 0 0 0 0 0 0 0 0 0 0 0 0 0 0 0 0 0 0 0 0 0 0 0 0 0 0 0 0 0 0 0 0 0 0 0 0 0 0 0 0 0 0 0 0 0 0 0 0 0 0 0 0 0 0 0 0 0 0 0 0 0 0 0 0 0 0 0 0 0 0 0 0 0 0 0 0 0 0 0 0 0 0 0 0 0 0 0 0 0 0 0 0 0 0 0 0 0 0 0 0 0 0 0 0 0 0 0 0 0 0 0 0 0 0 0 0 0 0 0 0 0 0 0 0 0 0 0 0 0 0 0 0 0 0 0 0 0 0 0 0 0 0 0 0 0 0 0 0 0 0 0 0 0 0 0 0 0 0 0 0 0 0 0 0 0 0 0 0 0 0 0 0 0 0 0 0 0 0 0 0 0 0 0 0 0 0 0 0 0 0 0 0 0 0 0 0 0 0 0 0 0 0 0 0 0 0 0 0 0 0 0 0 0 0 0 0 0 0 0 0 0 0 0 0 0 0 0 0 0 0 0 0 0 0 0 0 0 0 0 0 0 0 0 0 0 0 0 0 0 0 0 0 0 0 0 0 0 0 0 0 0 0 0 0 0 0 0 0 0 0 0 0 0 0 0 0 0 0 0 0 0 0 0 0 0 0 0 0 0 0 0 0 0 0 0 0 0 0 0 0 0 0 0 0 0 0 0 0 0 0 0 0 0 0 0 0 0 0 0 0 0 0 0 0 0 0 0 0 0 0 0 0 0 0 0 0 0 0 0 0 0 0 0 0 0 0 0 0 0 0 0 0 0 0 0 0 0 0 0 0 0 0 0 0 0 0 0 0 0 0 0 0 0 0 0 0 0 0 0 0 0 0 0 0 0 0 0 0 0 0 0 0 0 0 0 0 0 0 0 0 0 0 0 0 0 0 0 0 0 0 0 0 0 0 0 0 0 0 0 0 0 0 0 0 0 0 0 0 0 0 0 0 0 0 0 0 0 0 0 0 0 0 0 0 0 0 0 0 0 0 0 0 0 0 0 0 0 0 0 0 0 0 0 0 0 0 0 0 0 0 0 0 0 0 0 0 0 0 0 0 0 0 0 0 0 0 0 0 0 0 0 0 0 0 0 0 0 0 0 0 0 0 0 0 0 0 0 0 0 0 0 0 0 0 0 0 0 0 0 0 0 0 0 0 0 0 0 0 0 0 0 0 0 0 0 0 0 0 0 0 0 0 0 0 0 0 0 0 0 0 0 0 0 0 0 0 0 0 0 0 0 0 0 0 0 0 0 0 0 0 0 0 0 0 0 0 0 0 0 0 0 0 0 0 0 0 0 0 0 0 0 0 0 0 0 0 0 0 0 0 0 0 0 0 0 0 0 0 0 0 0 0 0 0 0 0 0 0 0 0 0 0 0 0 0 0 0 0 0 0 0 0 0 0 0 0 0 0 0 0 0 0 0 0 0 0 0 0 0 0 0 0 0 0 0 0 0 0 0 0 0 0 0 0 0 0 0 0 0 0 0 0 0 0 0 0 0 0 0 0 0 0 0 0 0 0 0 0 0 0 0 0 0 0 0 0 0 0 0 0 0 0 0 0 0 0 0 0 0 0 0 0 0 0 0 0 0 0 0 0 0 0 0 0 0 0 0 0 0 0 0 0 0 0 0 0 0 0 0 0 0 0 0 0 0 0 0 0 0 0 0 0 0 0 0 0 0 0 0 0 0 0 0 0 0 0 0 0 0 0 0 0 0 0 0 0 0 0 0 0 0 0 0 0 0 0 0 0 0 0 0 0 0 0 0 0 0 0 0 0 0 0 0 0 0 0 0 0 0 0 0 0 0 0 0 0 0 0 0 0 0 0 0 0 0 0 0 0 0 0 0 0 0 0 0 0 0 0 0 0 0 0 0 0 0 0 0 0 0 0 0 0 0 0 0 0 0 0 0 0 0 0 0 0 0 0 0 0 0 0 0 0 0 0 0 0 0 0 0 0 0 0 0 0 0 0 0 0 0 0 0 0 0 0 0 0 0 0 0 0 0 0 0 0 0 0 0 0 0 0 0 0 0 0 0 0 0 0 0 0 0 0 0 0 0 0 0 0 0 0 0 0 0 0 0 0 0 0 0 0 0 0 0 0 0 0 0 0 0 0 0 0 0 0 0 0 0 0 0 0 0 0 0 0 0 0 0 0 0 0 0 0 0 0 0 0 0 0 0 0 0 0 0 0 0 0 0 0 0 0 0 0 0 0 0 0 0 0 0 0 0 0 0 0 0 0 0 0 0 0 0 0 0 0 0 0 0 0 0 0 0 0 0 0 0 0 0 0 0 0 0 0 0 0 0 0 0 0 0 0 0 0 0 0 0 0 0 0 0 0 0 0 0 0 0 0 0 0 0 0 0 0 0 0 0 0 0 0 0 0 0 0 0 0 0 0 0 0 0 0 0 0 0 0 0 0 0 0 0 0 0 0 0 0 0 0 0 0 0 0 0 0 0 0 0 0 0 0 0 0 0 0 0 0 0 0 0 0 0 0 0 0 0 0 0 0 0 0 0 0 0 0 0 0 0 0 0 0 0 0 0 0 0 0 0 0 0 0 0 0 0 0 0 0 0 0 0 0 0 0 0 0 0 0 0 0 0 0 0 0 0 0 0 0 0 0 0 0 0 0 0 0 0 0 0 0 0 0 0 0 0 0 0 0 0 0 0 0 0 0 0 0 0 0 0 0 0 0 0 0 0 0 0 0 0 0 0 0 0 0 0 0 0 0 0 0 0 0 0 0 0 0 0 0 0 0 0 0 0 0 0 0 0 0 0 0 0 0 0 0 0 0 0 0 0 0 0 0 0 0 0 0 0 0 0 0 0 0 0 0 0 0 0 0 0 0 0 0 0 0 0 0 0 0 0 0 0 0 0 0 0 0 0 0 0 0 0 0 0 0 0 0 0 0 0 0 0 0 0 0 0 0 0 0 0 0 0 0 0 0 0 0 0 0 0 0 0 0 0 0 0 0 0 0 0 0 0 0 0 0 0 0 0 0 0 0 0 0 0 0 0 0 0 0 0 0 0 0 0 0 0 0 0 0 0 0 0 0 0 0 0 0 0 0 0 0 0 0 0 0 0 0 0 0 0 0 0 0 0 0 0 0 0 0 0 0 0 0 0 0 0 0 0 0 0 0 0 0 0 0 0 0 0 0 0 0 0 0 0 0 0 0 0 0 0 0 0 0 0 0 0 0 0 0 0 0 0 0 0 0 0 0 0 0 0 0 0 0 0 0 0 0 0 0 0 0 0 0 0 0 0 0 0 0 0 0 0 0 0 0 0 0 0 0 0 0 0 0 0 0 0 0 0 0 0 0 0 0 0 0 0 0 0 0 0 0 0 0 0 0 0 0 0 0 0 0 0 0 0 0 0 0 0 0 0 0 0 0 0 0 0 0 0 0 0 0 0 0 0 0 0 0 0 0 0 0 0 0 0 0 0 0 0 0 0 0 0 0 0 0 0 0 0 0 0 0 0 0 0 0 0 0 0 0 0 0 0 0 0 0 0 0 0 0 0 0 0 0 0 0 0 0 0 0 0 0 0 0 0 0 0 0 0 0 0 0 0 0 0 0 0 0 0 0 0 0 0 0 0 0 0 0 0 0 0 0 0 0 0 0 0 0 0 0 0 0 0 0 0 0 0 0 0 0 0 0 0 0 0 0 0 0 0 0 0 0 0 0 0 0 0 0 0 0 0 0 0 0 0 0 0 0 0 0 0 0 0 0 0 0 0 0 0 0 0 0 0 0 0 0 0 0 0 0 0 0 0 0 0 0 0 0 0 0 0 0 0 0 0 0 0 0 0 0 0 0 0 0 0 0 0 0 0 0 0 0 0 0 0 0 0 0 0 0 0 0 0 0 0 0 0 0 0 0 0 0 0 0 0 0 0 0 0 0 0 0 0 0 0 0 0 0 0 0 0 0 0 0 0 0 0 0 0 0 0 0 0 0 0 0 0 0 0 0 0 0 0 0 0 0 0 0 0 0 0 0 0 0 0 0 0 0
        </DataArray>
        <DataArray type="Float32" Name="velocity" NumberOfComponents="3" format="ascii">
 -0.0040386754 -0.0036718480 0.7119473192 -0.0039538647 -0.0034771360 0.7121179754 -0.0041999281 -0.0040449433 0.7120244086 -0.0038864104 -0.0033198778 0.7119204922 -0.0040768190 -0.0037620432 0.7122357869 -0.0041679302 -0.0039696112 0.7118284950 -0.0037870545 -0.0030918737 0.7121345283 -0.0042871910 -0.0042477630 0.7121937629 -0.0039354706 -0.0034319651 0.7117455962 -0.0039175583 -0.0033947418 0.7123246335 -0.0043381123 -0.0043636195 0.7119450349 -0.0037087135 -0.0029098970 0.7119972831 -0.0042214879 -0.0040971577 0.7123592009 -0.0041202070 -0.0038580963 0.7116530609 -0.0037201098 -0.0029385382 0.7123191818 -0.0044347297 -0.0045885685 0.7121864450 -0.0037692687 -0.0030480523 0.7117543588 -0.0040209323 -0.0036344999 0.7124545688 -0.0043497148 -0.0043892225 0.7117776609 -0.0035919092 -0.0026414235 0.7121892635 -0.0043943566 -0.0044968957 0.7124093271 -0.0039740615 -0.0035196749 0.7115442189 -0.0037591203 -0.0030298178 0.7124798256 -0.0045162205 -0.0047760793 0.7120810436 -0.0036013866 -0.0026613268 0.7119119377 -0.0041988196 -0.0040460831 0.7125395962 -0.0042627950 -0.0041869247 0.7115706256 -0.0035486537 -0.0025430342 0.7124041765 -0.0045457833 -0.0048466195 0.7123930661 -0.0037757981 -0.0030618240 0.7115715575 -0.0038915624 -0.0033366264 0.7125950829 -0.0045180868 -0.0047789567 0.7118813707 -0.0034737577 -0.0023682647 0.7121622825 -0.0044046276 -0.0045219260 0.7125904683 -0.0040894870 -0.0037853453 0.7114054543 -0.0035904453 -0.0026408782 0.7125841914 -0.0046422441 -0.0050687297 0.7122896311 -0.0035737494 -0.0025963835 0.7117597471 -0.0040994479 -0.0038174768 0.7126748935 -0.0044312364 -0.0045763951 0.7116152797 -0.0034122374 -0.0022280540 0.7124295119 -0.0045907518 -0.0049519566 0.7125944229 -0.0038565751 -0.0032470770 0.7113814016 -0.0037237904 -0.0029498305 0.7127074387 -0.0046646839 -0.0051190780 0.7120816146 -0.0034110887 -0.0022227568 0.7120615268 -0.0043452205 -0.0043857160 0.7127349608 -0.0042529625 -0.0041626772 0.7113574160 -0.0034316347 -0.0022744711 0.7126527400 -0.0047218892 -0.0052543826 0.7125192021 -0.0036103715 -0.0026795152 0.7115542537 -0.0039444419 -0.0034601779 0.7127877745 -0.0046008793 -0.0049694781 0.7117764354 -0.0033146796 -0.0020023976 0.7123920767 -0.0045778721 -0.0049234448 0.7127676264 -0.0039976577 -0.0035719423 0.7112314250 -0.0035430565 -0.0025329693 0.7128031817 -0.0047793129 -0.0053857149 0.7123335732 -0.0034004789 -0.0021970001 0.7118882136 -0.0042236377 -0.0041056834 0.7128546398 -0.0044408755 -0.0045973256 0.7114289217 -0.0032980758 -0.0019660898 0.7126777045 -0.0047552187 -0.0053329426 0.7127362232 -0.0037081089 -0.0029036920 0.7113279343 -0.0037534482 -0.0030197010 0.7128956945 -0.0047523595 -0.0053212345 0.7120259139 -0.0032589167 -0.0018727905 0.7122837353 -0.0045075880 -0.0047620569 0.7129053212 -0.0041839246 -0.0040020795 0.7112043280 -0.0033718518 -0.0021379695 0.7128775183 -0.0048563570 -0.0055656046 0.7125973909 -0.0034428958 -0.0022932845 0.7116499851 -0.0040476972 -0.0037004181 0.7130230117 -0.0046293251 -0.0050340918 0.7116226809 -0.0031986085 -0.0017360594 0.7126454977 -0.0047405670 -0.0053004158 0.7129203881 -0.0038674210 -0.0032711691 0.7112470386 -0.0035492524 -0.0025486529 0.7129937929 -0.0048734639 -0.0056031568 0.7123231711 -0.0032471693 -0.0018443232 0.7120989408 -0.0043731666 -0.0044527134 0.7130737259 -0.0043935641 -0.0044871473 0.7113071430 -0.0032265083 -0.0018024575 0.7129157524 -0.0048930639 -0.0056521720 0.7128428868 -0.0035443115 -0.0025257804 0.7113988067 -0.0038417437 -0.0032262650 0.7132541911 -0.0047979562 -0.0054257700 0.7119136670 -0.0031372106 -0.0015934785 0.7125433689 -0.0046736090 -0.0051467663 0.7130656510 -0.0040671904 -0.0037345797 0.7115093077 -0.0033548597 -0.0021001391 0.7130760790 -0.0049584937 -0.0058017949 0.7126285816 -0.0032828483 -0.0019248810 0.7118384349 -0.0041755166 -0.0039990852 0.7134916441 -0.0046096176 -0.0049874597 0.7114692690 -0.0031157526 -0.0015464689 0.7129004018 -0.0048868442 -0.0056392946 0.7130505877 -0.0037265308 -0.0029480703 0.7115810571 -0.0036222869 -0.0027200906 0.7133705463 -0.0049341540 -0.0057428981 0.7122576168 -0.0031160120 -0.0015431997 0.7123618861 -0.0045269814 -0.0048100273 0.7133460517 -0.0042773965 -0.0042219460 0.7117498394 -0.0031892819 -0.0017180204 0.7131338773 -0.0050054128 -0.0059122261 0.7129117634 -0.0033780435 -0.0021428875 0.7115707923 -0.0039665204 -0.0035188133 0.7138495988 -0.0048073385 -0.0054462692 0.7117498302 -0.0030426418 -0.0013769565 0.7128162126 -0.0048326714 -0.0055153050 0.7132128509 -0.0039371062 -0.0034376641 0.7120129279 -0.0033915556 -0.0021868467 0.7133446450 -0.0050329261 -0.0059736240 0.7126102267 -0.0031380580 -0.0015922240 0.7120961867 -0.0043075212 -0.0043070676 0.7139110209 -0.0045019161 -0.0047412559 0.7118337973 -0.0030612692 -0.0014223402 0.7131432193 -0.0050126534 -0.0059306872 0.7131530451 -0.0035827946 -0.0026183927 0.7119145586 -0.0037529400 -0.0030265290 0.7140096642 -0.0049657225 -0.0058149504 0.7121350808 -0.0030079492 -0.0012956228 0.7126514743 -0.0046843996 -0.0051751753 0.7135500263 -0.0041451888 -0.0039203608 0.7122863497 -0.0031848654 -0.0017092602 0.7133347824 -0.0050936573 -0.0061162881 0.7129383589 -0.0032151159 -0.0017680481 0.7117895843 -0.0040941170 -0.0038168519 0.7143023971 -0.0047470774 -0.0053074403 0.7118044527 -0.0029726363 -0.0012171573 0.7130855055 -0.0049764693 -0.0058484495 0.7133421260 -0.0038048023 -0.0031346601 0.7123828286 -0.0035232915 -0.0024957588 0.7139798579 -0.0050826270 -0.0060879374 0.7125391873 -0.0030132207 -0.0013059785 0.7123976894 -0.0044455303 -0.0046278577 0.7141822351 -0.0043603004 -0.0044181545 0.7124007844 -0.0030326265 -0.0013577667 0.7133658906 -0.0051165437 -0.0061711945 0.7132212469 -0.0034303126 -0.0022677263 0.7121389827 -0.0038843194 -0.0033336005 0.7145032909 -0.0049666323 -0.0058158750 0.7119711646 -0.0029223693 -0.0011000351 0.7129475926 -0.0048507808 -0.0055602666 0.7136476668 -0.0040149950 -0.0036223894 0.7126782028 -0.0032673269 -0.0019028993 0.7137703094 -0.0051596181 -0.0062685337 0.7129184122 -0.0030649239 -0.0014230101 0.7120610608 -0.0042235063 -0.0041180003 0.7146115451 -0.0045951785 -0.0049605897 0.7123725277 -0.0029251188 -0.0011092085 0.7133403376 -0.0050998216 -0.0061341869 0.7134475137 -0.0036677176 -0.0028197648 0.7126349364 -0.0036660958 -0.0028296909 0.7145383367 -0.0051093104 -0.0061486713 0.7124121226 -0.0029099417 -0.0010696827 0.7127191529 -0.0045931230 -0.0049699187 0.7143323063 -0.0042245694 -0.0041076493 0.7128286802 -0.0030334601 -0.0013612336 0.7135804164 -0.0051990240 -0.0063619515 0.7132494884 -0.0032648537 -0.0018864137 0.7122707720 -0.0040129215 -0.0036332483 0.7148567378 -0.0048619195 -0.0055757467 0.7122202583 -0.0028577896 -0.0009529083 0.7132359822 -0.0050192309 -0.0059496682 0.7136799723 -0.0038846796 -0.0033233362 0.7129585665 -0.0034261968 -0.0022745269 0.7144094111 -0.0052050484 -0.0063729858 0.7128480317 -0.0029379116 -0.0011319535 0.7123923110 -0.0043573999 -0.0044287799 0.7148127946 -0.0044457921 -0.0046189208 0.7128539345 -0.0028987888 -0.0010500577 0.7135741312 -0.0052014487 -0.0063695000 0.7135205004 -0.0035225490 -0.0024855593 0.7127987915 -0.0038014859 -0.0031454441 0.7149506713 -0.0051081126 -0.0061447377 0.7122497655 -0.0028276942 -0.0008819846 0.7130418549 -0.0047538447 -0.0053415920 0.7143822119 -0.0040933792 -0.0038068312 0.7131447127 -0.0031514918 -0.0016376746 0.7141028459 -0.0052616060 -0.0065064176 0.7132332395 -0.0030849259 -0.0014712376 0.7123418366 -0.0041413400 -0.0039317266 0.7151064211 -0.0046922614 -0.0051876633 0.7127599950 -0.0028125959 -0.0008504480 0.7135074966 -0.0051612032 -0.0062780531 0.7137337987 -0.0037513039 -0.0030166198 0.7131563831 -0.0035766664 -0.0026257045 0.7149033518 -0.0052311439 -0.0064323774 0.7127232158 -0.0028346123 -0.0008958540 0.7127476554 -0.0044988558 -0.0047564106 0.7149277225 -0.0043059888 -0.0042985408 0.7132168550 -0.0028983628 -0.0010506864 0.7137986435 -0.0052822641 -0.0065564534 0.7135547223 -0.0033657544 -0.0021240002 0.7128938708 -0.0039319678 -0.0034490760 0.7152541545 -0.0049776087 -0.0058454189 0.7125537980 -0.0027648914 -0.0007391258 0.7133529056 -0.0049309843 -0.0057505575 0.7143432931 -0.0039637781 -0.0035090912 0.7133781465 -0.0033245162 -0.0020417353 0.7147046354 -0.0053059842 -0.0066084805 0.7131686424 -0.0029053002 -0.0010569598 0.7124408023 -0.0042723680 -0.0042356538 0.7152753549 -0.0045351956 -0.0048278439 0.7131844942 -0.0027856079 -0.0007898888 0.7137568334 -0.0052666346 -0.0065221609 0.7138075866 -0.0036117724 -0.0026952210 0.7132900879 -0.0037170093 -0.0029526022 0.7152742129 -0.0052341726 -0.0064381660 0.7125549413 -0.0027525587 -0.0007088183 0.7131001981 -0.0046512421 -0.0051087564 0.7149678448 -0.0041726153 -0.0039923811 0.7134914765 -0.0030313952 -0.0013618511 0.7143304994 -0.0053441238 -0.0066993041 0.7135459016 -0.0031937056 -0.0017268048 0.7129340100 -0.0040604267 -0.0037474393 0.7154748037 -0.0047953194 -0.0054278277 0.7130481588 -0.0027197357 -0.0006368972 0.7136444605 -0.0051245844 -0.0061969991 0.7142274733 -0.0038328583 -0.0032078494 0.7135482349 -0.0034835020 -0.0024123525 0.7151658198 -0.0053334635 -0.0066711259 0.7130517151 -0.0027778536 -0.0007646780 0.7127411457 -0.0044089498 -0.0045519305 0.7153772763 -0.0043900293 -0.0044948055 0.7135100656 -0.0027790084 -0.0007763026 0.7139880056 -0.0053483201 -0.0067111868 0.7138504860 -0.0034627417 -0.0023515023 0.7133717252 -0.0038504298 -0.0032628429 0.7155525987 -0.0050996555 -0.0061292616 0.7128152859 -0.0026895141 -0.0005655864 0.7134370313 -0.0048181573 -0.0054941664 0.7149381074 -0.0040425815 -0.0036934564 0.7136991627 -0.0032168645 -0.0017945080 0.7149106886 -0.0053890519 -0.0068027046 0.7134906462 -0.0030035710 -0.0012875307 0.7129330575 -0.0041896787 -0.0040471600 0.7156293622 -0.0046292664 -0.0050469929 0.7134374931 -0.0026907901 -0.0005719489 0.7139123899 -0.0053030384 -0.0066084753 0.7141153401 -0.0036976529 -0.0028963430 0.7136677197 -0.0036300207 -0.0027533742 0.7155166250 -0.0053432500 -0.0066925164 0.7128819773 -0.0026928688 -0.0005710828 0.7131232723 -0.0045542858 -0.0048880042 0.7154196691 -0.0042532679 -0.0041806468 0.7137607372 -0.0029048111 -0.0010704829 0.7144806399 -0.0054110145 -0.0068560365 0.7138514504 -0.0033006158 -0.0019772179 0.7134099271 -0.0039799777 -0.0035636227 0.7157594030 -0.0049052022 -0.0056833027 0.7132727023 -0.0026432405 -0.0004609382 0.7137513179 -0.0050029352 -0.0059203493 0.7148394316 -0.0039129642 -0.0033951176 0.7138544637 -0.0033856444 -0.0021876548 0.7153582818 -0.0054186993 -0.0068704433 0.7133854568 -0.0027993639 -0.0008156926 0.7129248276 -0.0043225883 -0.0043549312 0.7157282958 -0.0044773693 -0.0046982417 0.7137404427 -0.0026778678 -0.0005438460 0.7141561954 -0.0054005013 -0.0068337913 0.7141359029 -0.0035550003 -0.0025673303 0.7137452573 -0.0037675280 -0.0030729735 0.7157834575 -0.0052284287 -0.0064283235 0.7130320999 -0.0026283062 -0.0004245513 0.7134890203 -0.0047118716 -0.0052519722 0.7154054808 -0.0041216726 -0.0038780084 0.7139536605 -0.0031023733 -0.0015310234 0.7150532558 -0.0054573148 -0.0069626891 0.7138076386 -0.0031218401 -0.0015642119 0.7134125584 -0.0041085312 -0.0038616911 0.7159086164 -0.0047288048 -0.0052784014 0.7136386850 -0.0026118856 -0.0003905731 0.7140400348 -0.0052067836 -0.0063901017 0.7146726761 -0.0037808668 -0.0030907447 0.7139674036 -0.0035396658 -0.0025459572 0.7157017461 -0.0054338499 -0.0069043019 0.7132262600 -0.0026485035 -0.0004685598 0.7131196378 -0.0044622008 -0.0046778315 0.7157775559 -0.0043359757 -0.0043732778 0.7139767291 -0.0027725082 -0.0007655035 0.7145752531 -0.0054652323 -0.0069834233 0.7141476323 -0.0034014627 -0.0022129135 0.7137871104 -0.0038992529 -0.0033787441 0.7159848893 -0.0050225067 -0.0059556282 0.7134560916 -0.0025802969 -0.0003160745 0.7138285281 -0.0048853196 -0.0056521771 0.7153342928 -0.0039922460 -0.0035800528 0.7141009625 -0.0032821703 -0.0019496129 0.7154994084 -0.0054893299 -0.0070359977 0.7137163294 -0.0029239799 -0.0011069360 0.7133902917 -0.0042389227 -0.0041636577 0.7160093455 -0.0045687662 -0.0049107371 0.7139271988 -0.0025943245 -0.0003518880 0.7143026169 -0.0054113947 -0.0068613766 0.7144725770 -0.0036432735 -0.0027734207 0.7140449981 -0.0036824893 -0.0028778153 0.7159653228 -0.0053614648 -0.0067370974 0.7132299294 -0.0025786685 -0.0003100194 0.7135093196 -0.0046118409 -0.0050235590 0.7157795917 -0.0042016723 -0.0040643211 0.7141610420 -0.0029805169 -0.0012501781 0.7151477823 -0.0055133711 -0.0070944124 0.7141162091 -0.0032334040 -0.0018247313 0.7137987074 -0.0040281826 -0.0036776794 0.7161337561 -0.0048346247 -0.0055240671 0.7138044118 -0.0025464802 -0.0002401841 0.7141398314 -0.0050776078 -0.0060954823 0.7152037396 -0.0038621038 -0.0032801780 0.7142112608 -0.0034450723 -0.0023284399 0.7158439691 -0.0055084637 -0.0070791786 0.7135737845 -0.0027097342 -0.0006117900 0.7133659456 -0.0043740797 -0.0044763251 0.7160670556 -0.0044214364 -0.0045719954 0.7141546258 -0.0026395242 -0.0004587012 0.7146351242 -0.0055089293 -0.0070864361 0.7144343583 -0.0034969283 -0.0024356600 0.7140923609 -0.0038175288 -0.0031912428 0.7161666403 -0.0051474283 -0.0062453708 0.7136143232 -0.0025285300 -0.0001968237 0.7138767071 -0.0047750953 -0.0054003974 0.7157339828 -0.0040713362 -0.0037642340 0.7143041306 -0.0031722207 -0.0016963240 0.7156006793 -0.0055477025 -0.0071731775 0.7140395535 -0.0030474948 -0.0013951398 0.7137867077 -0.0041571707 -0.0039764340 0.7162387004 -0.0046650361 -0.0051342678 0.7140829083 -0.0025252140 -0.0001930901 0.7144234272 -0.0052888863 -0.0065822254 0.7150126397 -0.0037283274 -0.0029716857 0.7142907349 -0.0035945207 -0.0026756208 0.7161099606 -0.0054881389 -0.0070313046 0.7134460349 -0.0025423712 -0.0002261501 0.7135076905 -0.0045171517 -0.0048069879 0.7160843039 -0.0042832355 -0.0042539984 0.7143339396 -0.0028513629 -0.0009522014 0.7152044858 -0.0055593898 -0.0072028766 0.7144151331 -0.0033382976 -0.0020693295 0.7141137201 -0.0039479227 -0.0034935801 0.7163182068 -0.0049474614 -0.0057857725 0.7139462662 -0.0024923477 -0.0001156431 0.7142123766 -0.0049554781 -0.0058164463 0.7156380808 -0.0039420380 -0.0034663049 0.7144138374 -0.0033453502 -0.0020988317 0.7159524798 -0.0055701226 -0.0072240794 0.7139149363 -0.0028422588 -0.0009208097 0.7137624736 -0.0042890753 -0.0042816504 0.7163051887 -0.0045104043 -0.0047786152 0.7143046539 -0.0025259124 -0.0001966830 0.7146989692 -0.0055039766 -0.0070774834 0.7147809237 -0.0035878253 -0.0026474663 0.7143439346 -0.0037340752 -0.0029995044 0.7163147921 -0.0052793782 -0.0065512653 0.7137606425 -0.0024859721 -0.0000986435 0.7138963692 -0.0046715798 -0.0051635962 0.7160611598 -0.0041508760 -0.0039492219 0.7144750005 -0.0030551053 -0.0014262476 0.7156695808 -0.0055959179 -0.0072868204 0.7143528977 -0.0031637677 -0.0016661137 0.7141137174 -0.0040765984 -0.0037916527 0.7164286814 -0.0047670244 -0.0053708509 0.7142165510 -0.0024679721 -0.0000615238 0.7145180152 -0.0051552957 -0.0062770087 0.7154883436 -0.0038109026 -0.0031639326 0.7144959064 -0.0035027955 -0.0024645360 0.7162251745 -0.0055791950 -0.0072438079 0.7137434991 -0.0026223399 -0.0004126367 0.7137492416 -0.0044268994 -0.0046002872 0.7163361384 -0.0043670557 -0.0044487050 0.7144810930 -0.0027160521 -0.0006397848 0.7152311474 -0.0055970808 -0.0072920353 0.7147048709 -0.0034372348 -0.0022997772 0.7143745056 -0.0038670522 -0.0033078437 0.7164711270 -0.0050678089 -0.0060647252 0.7140735498 -0.0024475332 -0.0000124393 0.7142584763 -0.0048409932 -0.0055545199 0.7159955144 -0.0040213296 -0.0036507228 0.7145851908 -0.0032396199 -0.0018551444 0.7160333785 -0.0056210660 -0.0073441506 0.7142457938 -0.0029704457 -0.0012193808 0.7140995430 -0.0042063988 -0.0040920697 0.7165037876 -0.0046036859 -0.0049950541 0.7144342002 -0.0024544690 -0.0000323331 0.7147972086 -0.0053726965 -0.0067777997 0