<?xml version="1.0"?>
<VTKFile type="UnstructuredGrid" version="0.1" byte_order="LittleEndian">
  <UnstructuredGrid>
    <FieldData>
      <DataArray type="Float32" Name="TIME"  NumberOfTuples="1" format="ascii"> 0.9500000000 </DataArray>
      <DataArray type="Int32"   Name="STEP"  NumberOfTuples="1" format="ascii"> 95000 </DataArray>
    </FieldData>
    <Piece NumberOfPoints="2004" NumberOfCells="2004">
      <Points>
        <DataArray type="Float32" NumberOfComponents="3" format="ascii">
 0.0268351783 0.9973420911 -0.0495101170 -0.0453585352 0.9962324238 -0.0128361853 0.0016896307 0.9939712457 -0.1199540814 0.0457768945 0.9939292662 0.0169247698 -0.0984393914 0.9971993066 -0.0666537220 0.0841100550 0.9952086444 -0.1056543802 -0.0347781882 0.9882259819 0.0598625630 -0.0605924445 0.9891291644 -0.1583026847 0.1180753739 0.9957288307 -0.0041542603 -0.1331044829 0.9951486120 0.0026258361 0.0569280741 0.9852904571 -0.1800627547 0.0396432755 0.9817699553 0.0942623137 -0.1419004264 0.9929842021 -0.1299496259 0.1573411573 0.9965303899 -0.0845348638 -0.1030510656 0.9828100052 0.0887212992 -0.0264108136 0.9759818922 -0.2226187765 0.1339082721 0.9869199968 0.0682929770 -0.1942424974 0.9972796314 -0.0426760707 0.1322225739 0.9843056359 -0.1848240051 -0.0146785225 0.9688418141 0.1448456886 -0.1335441524 0.9802210660 -0.2054117135 0.2038483428 0.9966742409 -0.0206216921 -0.1805607020 0.9861156658 0.0714275847 0.0430295018 0.9659626202 -0.2579630369 0.1034738166 0.9700513331 0.1412068781 -0.2230724942 0.9940357825 -0.1203868185 0.2074048643 0.9906753649 -0.1465577177 -0.0951095852 0.9630211826 0.1633220775 -0.0833906214 0.9618549102 -0.2714079093 0.2124872976 0.9874156075 0.0657712784 -0.2488050009 0.9941454998 0.0134789940 0.1307075490 0.9656950995 -0.2584217369 0.0363682295 0.9516227924 0.1964051132 -0.2101200384 0.9792021512 -0.2102121378 0.2639872951 0.9970390476 -0.0707005503 -0.1863910528 0.9686375695 0.1447817138 -0.0023246656 0.9464593663 -0.3132834700 0.1779359601 0.9664902023 0.1535267722 -0.2891166094 0.9969106097 -0.0773007728 0.2217813304 0.9763309549 -0.2200800425 -0.0556615929 0.9409166504 0.2227511801 -0.1553069985 0.9550669575 -0.2913733629 0.2840262710 0.9924813284 0.0308913263 -0.2730286381 0.9831230119 0.0864262237 0.0977668329 0.9424303974 -0.3226980032 0.1051965051 0.9407300949 0.2239063223 -0.2860997730 0.9847149873 -0.1845666449 0.2991794606 0.9911679639 -0.1418915593 -0.1609577421 0.9444037600 0.2138975635 -0.0675023263 0.9314928660 -0.3484193999 0.2568687426 0.9711697170 0.1379256444 -0.3358416009 0.9955522421 -0.0099189376 0.2052600876 0.9533773251 -0.2943347134 0.0052701216 0.9214290412 0.2653499722 -0.2355557912 0.9570938896 -0.2860654508 0.3420144528 0.9959395854 -0.0303536068 -0.2671942263 0.9622010301 0.1650528347 0.0417847038 0.9193220271 -0.3731280544 0.1852361668 0.9387717672 0.2288400636 -0.3543543716 0.9914538077 -0.1317681578 0.3059820028 0.9750699960 -0.2239515225 -0.1108656377 0.9177669421 0.2720807547 -0.1460650571 0.9246046537 -0.3633380916 0.3337105724 0.9807954867 0.0957159678 -0.3567172016 0.9838754592 0.0731607810 0.1623700205 0.9251367613 -0.3608283496 0.0813600796 0.9088371045 0.2898533003 -0.3185244078 0.9668950957 -0.2556648176 0.3764024601 0.9865059718 -0.1115194871 -0.2333230250 0.9331999662 0.2395615037 -0.0310199367 0.9011893049 -0.4071913212 0.2716287199 0.9464104095 0.2107710445 -0.4005420205 0.9793526954 -0.0553592078 0.2835222558 0.9485681954 -0.3064644766 -0.0421400557 0.8939154794 0.3155021066 -0.2335871242 0.9277080956 -0.3572769221 0.3924714314 0.9709155568 0.0263979971 -0.3484576351 0.9614166270 0.1620123555 0.0986962439 0.8968209222 -0.4141630447 0.1682949969 0.9060587044 0.2953033021 -0.3917454028 0.9665649635 -0.1973564436 0.3822798378 0.9649392710 -0.2031087552 -0.1760844254 0.9009440689 0.3028583296 -0.1161660127 0.8917832021 -0.4236336044 0.3572599102 0.9569295941 0.1670020241 -0.4139689000 0.9411631912 0.0340196085 0.2347428406 0.9150748381 -0.3805105505 0.0403728305 0.8773606040 0.3424506030 -0.3258366671 0.9401044941 -0.3283394678 0.4111934267 0.9136790707 -0.0611771217 -0.3113634184 0.9294781093 0.2466164164 0.0195257707 0.8736089247 -0.4517829016 0.2627878428 0.9143829425 0.2802117537 -0.4204074287 0.8997442839 -0.1119345296 0.3623826125 0.9433481071 -0.2976000301 -0.1010995034 0.8711815953 0.3511704697 -0.2105838991 0.8934452512 -0.4212908657 0.4048927688 0.9022477263 0.0872214508 -0.4081167734 0.9162733624 0.1294921586 0.1652082269 0.8805115876 -0.4405100272 0.1333651806 0.8713180346 0.3520149740 -0.4000899234 0.9190633528 -0.2649116220 0.4106777112 0.8688911105 -0.1532620123 -0.2493716079 0.8914358852 0.3186997047 -0.0712421484 0.8595428411 -0.4727454366 0.3576468091 0.9240035576 0.2391839943 -0.4240487983 0.8333886478 -0.0214589874 0.3135126810 0.9119140788 -0.3843104548 -0.0131014138 0.8488455713 0.3831930099 -0.3115616107 0.9064346957 -0.3979579285 0.4140258228 0.8171746520 -0.0053710662 -0.3849556675 0.9107170039 0.2301364487 0.0805856288 0.8507771866 -0.4842064989 0.2346909788 0.8776398921 0.3428763357 -0.4194659120 0.8204322960 -0.1702470038 0.4014424480 0.8574518521 -0.2513038933 -0.1691454290 0.8547133860 0.3744909376 -0.1712634714 0.8573175519 -0.4763317356 0.4009571020 0.8407526752 0.1492878206 -0.4203435625 0.8011898978 0.0713725679 0.2397791679 0.8714144542 -0.4540574720 0.0848854232 0.8374565850 0.3986101605 -0.3925889664 0.8776084482 -0.3339154008 0.4145927310 0.7657072550 -0.0965896527 -0.3291904643 0.8880642685 0.3202675317 -0.0150296458 0.8303514759 -0.5112720574 0.3398058728 0.8901405549 0.3098261814 -0.4244154032 0.7483276600 -0.0779098871 0.3791065741 0.8731031026 -0.3581398045 -0.0762166739 0.8252184987 0.4132329270 -0.2791175211 0.8682551831 -0.4608899157 0.4115883019 0.7481826753 0.0516448673 -0.4097023922 0.8017918895 0.1715526295 0.1502132359 0.8341344214 -0.5057524421 0.1913886250 0.8392583749 0.3967633434 -0.4139709023 0.7671211369 -0.2309098097 0.4095550934 0.7466823807 -0.1905850559 -0.2451111115 0.8455222228 0.3865817648 -0.1194883060 0.8222234795 -0.5217548448 0.3914328081 0.8022457562 0.2153649408 -0.4237547760 0.7097486186 0.0131987222 0.3207211112 0.8673130795 -0.4541633664 0.0260814365 0.8068725904 0.4353916871 -0.3756803726 0.8521647294 -0.4066354371 0.4151196861 0.6912930652 -0.0405336230 -0.3871340632 0.8311038777 0.2835307551 0.0500639118 0.8060587346 -0.5399994082 0.3050609895 0.8536752763 0.3748215574 -0.4223406654 0.6893225690 -0.1348828312 0.3974809877 0.7576676953 -0.2929401865 -0.1473918380 0.8078500891 0.4334947030 -0.2321293558 0.8282509271 -0.5148653874 0.4065954151 0.7025178006 0.1109584174 -0.4175482062 0.7000521658 0.1082806082 0.2275510170 0.8246853793 -0.5171620075 0.1364798951 0.8021730430 0.4412155759 -0.4051505822 0.7352498242 -0.2955323116 0.4134370770 0.6640039497 -0.1321801661 -0.3272434733 0.8405910994 0.3858360753 -0.0581989570 0.7905134345 -0.5577716210 0.3767701071 0.7834214169 0.2872678873 -0.4248133317 0.6437383727 -0.0435108717 0.3733772645 0.7973214813 -0.4089624907 -0.0409201859 0.7813337322 0.4630316682 -0.3464181934 0.8337072129 -0.4801402129 0.4136179557 0.6387968771 0.0157771652 -0.4038543481 0.7180197504 0.2131089247 0.1227189112 0.7879734122 -0.5596848140 0.2550461028 0.8125815566 0.4296035257 -0.4180541902 0.6497306617 -0.1936247187 0.4060188801 0.6628505966 -0.2286785879 -0.2260159039 0.7977148659 0.4445572925 -0.1741798212 0.7895771023 -0.5593108413 0.3987506713 0.6747276139 0.1739563060 -0.4221210277 0.6244622758 0.0485052046 0.3109991893 0.8192010919 -0.5163519355 0.0727615501 0.7687055198 0.4764964702 -0.3921556331 0.7204983690 -0.3656982131 0.4150939086 0.6034075842 -0.0755526632 -0.3773881444 0.7639193036 0.3334330211 0.0106564642 0.7638883429 -0.5850327500 0.3546770429 0.7792470009 0.3655895719 -0.4239104419 0.5964608374 -0.0999529346 0.3905178835 0.6877358606 -0.3359685072 -0.1149870703 0.7620730265 0.4822503051 -0.2980705978 0.8028788587 -0.5421409072 0.4100274565 0.6027774300 0.0735716457 -0.4134123842 0.6292146175 0.1466116231 0.2025175451 0.7770336925 -0.5708422663 0.1941128355 0.7717100660 0.4740037933 -0.4111475962 0.6253087791 -0.2555078904 0.4113654166 0.5917928289 -0.1683808267 -0.3108929193 0.7920848934 0.4443428997 -0.1080487639 0.7546396137 -0.5946128384 0.3871777503 0.6615093769 0.2421477818 -0.4244106097 0.5684173779 -0.0089335780 0.3611096100 0.7398966937 -0.4600052845 0.0020756056 0.7404881532 0.5033210036 -0.3732723084 0.7199906071 -0.4428621664 0.4147860987 0.5592524168 -0.0194685577 -0.3959034526 0.6586793563 0.2569074053 0.0860780426 0.7435121138 -0.6042700808 0.3181828408 0.7760414584 0.4437301053 -0.4209898029 0.5635535349 -0.1573869154 0.4012695179 0.6026860747 -0.2682559415 -0.1958501750 0.7499725168 0.4935718172 -0.2346762150 0.7617038369 -0.5882468384 0.4039910685 0.5799046118 0.1341661681 -0.4196068805 0.5621624820 0.0847518982 0.2888195945 0.7714384595 -0.5718644798 0.1255375657 0.7347138154 0.5091465005 -0.4008499459 0.6135560605 -0.3220216983 0.4143116005 0.5384494096 -0.1107266018 -0.3630430585 0.7145294762 0.3853826342 -0.0355279682 0.7250247401 -0.6215727200 0.3704235097 0.6608744446 0.3170897635 -0.4247012768 0.5271358372 -0.0653407106 0.3815334657 0.6374302098 -0.3814222564 -0.0746685775 0.7186044110 0.5224870148 -0.3452432821 0.7300664722 -0.5270644453 0.4125069285 0.5279026157 0.0373052054 -0.4080084486 0.5771738615 0.1867564351 0.1679092769 0.7302063613 -0.6160452968 0.2572715284 0.7454963106 0.4987580283 -0.4157641453 0.5423049966 -0.2171213350 0.4083801453 0.5379034273 -0.2055524961 -0.2834171094 0.7442388636 0.4960372416 -0.1635973643 0.7229885933 -0.6239442283 0.3948482490 0.5681852877 0.1989966827 -0.4232460105 0.5114434337 0.0260773590 0.3447172416 0.6978663764 -0.5136894541 0.0511402125 0.7032369065 0.5360300457 -0.3859047560 0.6130017211 -0.3947441101 0.4152030148 0.4986333912 -0.0544073524 -0.3857918621 0.6152210426 0.3034703791 0.0425311200 0.7017448722 -0.6410668850 0.3461523575 0.6712152697 0.3999919703 -0.423045
[...]
      <PointData Scalars="material ID">
        <DataArray type="Int32" Name="material ID" format="ascii">
 0 0 0 0 0 0 0 0 0 0 0 0 0 0 0 0 0 0 0 0 0 0 0 0 0 0 0 0 0 0 0 0 0 0 0 0 0 0 0 0 0 0 0 0 0 0 0 0 0 0 0 0 0 0 0 0 0 0 0 0 0 0 0 0 0 0 0 0 0 0 0 0 0 0 0 0 0 0 0 0 0 0 0 0 0 0 0 0 0 0 0 0 0 0 0 0 0 0 0 0 0 0 0 0 0 0 0 0 0 0 0 0 0 0 0 0 0 0 0 0 0 0 0 0 0 0 0 0 0 0 0 0 0 0 0 0 0 0 0 0 0 0 0 0 0 0 0 0 0 0 0 0 0 0 0 0 0 0 0 0 0 0 0 0 0 0 0 0 0 0 0 0 0 0 0 0 0 0 0 0 0 0 0 0 0 0 0 0 0 0 0 0 0 0 0 0 0 0 0 0 0 0 0 0 0 0 0 0 0 0 0 0 0 0 0 0 0 0 0 0 0 0 0 0 0 0 0 0 0 0 0 0 0 0 0 0 0 0 0 0 0 0 0 0 0 0 0 0 0 0 0 0 0 0 0 0 0 0 0 0 0 0 0 0 0 0 0 0 0 0 0 0 0 0 0 0 0 0 0 0 0 0 0 0 0 0 0 0 0 0 0 0 0 0 0 0 0 0 0 0 0 0 0 0 0 0 0 0 0 0 0 0 0 0 0 0 0 0 0 0 0 0 0 0 0 0 0 0 0 0 0 0 0 0 0 0 0 0 0 0 0 0 0 0 0 0 0 0 0 0 0 0 0 0 0 0 0 0 0 0 0 0 0 0 0 0 0 0 0 0 0 0 0 0 0 0 0 0 0 0 0 0 0 0 0 0 0 0 0 0 0 0 0 0 0 0 0 0 0 0 0 0 0 0 0 0 0 0 0 0 0 0 0 0 0 0 0 0 0 0 0 0 0 0 0 0 0 0 0 0 0 0 0 0 0 0 0 0 0 0 0 0 0 0 0 0 0 0 0 0 0 0 0 0 0 0 0 0 0 0 0 0 0 0 0 0 0 0 0 0 0 0 0 0 0 0 0 0 0 0 0 0 0 0 0 0 0 0 0 0 0 0 0 0 0 0 0 0 0 0 0 0 0 0 0 0 0 0 0 0 0 0 0 0 0 0 0 0 0 0 0 0 0 0 0 0 0 0 0 0 0 0 0 0 0 0 0 0 0 0 0 0 0 0 0 0 0 0 0 0 0 0 0 0 0 0 0 0 0 0 0 0 0 0 0 0 0 0 0 0 0 0 0 0 0 0 0 0 0 0 0 0 0 0 0 0 0 0 0 0 0 0 0 0 0 0 0 0 0 0 0 0 0 0 0 0 0 0 0 0 0 0 0 0 0 0 0 0 0 0 0 0 0 0 0 0 0 0 0 0 0 0 0 0 0 0 0 0 0 0 0 0 0 0 0 0 0 0 0 0 0 0 0 0 0 0 0 0 0 0 0 0 0 0 0 0 0 0 0 0 0 0 0 0 0 0 0 0 0 0 0 0 0 0 0 0 0 0 0 0 0 0 0 0 0 0 0 0 0 0 0 0 0 0 0 0 0 0 0 0 0 0 0 0 0 0 0 0 0 0 0 0 0 0 0 0 0 0 0 0 0 0 0 0 0 0 0 0 0 0 0 0 0 0 0 0 0 0 0 0 0 0 0 0 0 0 0 0 0 0 0 0 0 0 0 0 0 0 0 0 0 0 0 0 0 0 0 0 0 0 0 0 0 0 0 0 0 0 0 0 0 0 0 0 0 0 0 0 0 0 0 0 0 0 0 0 0 0 0 0 0 0 0 0 0 0 0 0 0 0 0 0 0 0 0 0 0 0 0 0 0 0 0 0 0 0 0 0 0 0 0 0 0 0 0 0 0 0 0 0 0 0 0 0 0 0 0 0 0 0 0 0 0 0 0 0 0 0 0 0 0 0 0 0 0 0 0 0 0 0 0 0 0 0 0 0 0 0 0 0 0 0 0 0 0 0 0 0 0 0 0 0 0 0 0 0 0 0 0 0 0 0 0 0 0 0 0 0 0 0 0 0 0 0 0 0 0 0 0 0 0 0 0 0 0 0 0 0 0 0 0 0 0 0 0 0 0 0 0 0 0 0 0 0 0 0 0 0 0 0 0 0 0 0 0 0 0 0 0 0 0 0 0 0 0 0 0 0 0 0 0 0 0 0 0 0 0 0 0 0 0 0 0 0 0 0 0 0 0 0 0 0 0 0 0 0 0 0 0 0 0 0 0 0 0 0 0 0 0 0 0 0 0 0 0 0 0 0 0 0 0 0 0 0 0 0 0 0 0 0 0 0 0 0 0 0 0 0 0 0 0 0 0 0 0 0 0 0 0 0 0 0 0 0 0 0 0 0 0 0 0 0 0 0 0 0 0 0 0 0 0 0 0 0 0 0 0 0 0 0 0 0 0 0 0 0 0 0 0 0 0 0 0 0 0 0 0 0 0 0 0 0 0 0 0 0 0 0 0 0 0 0 0 0 0 0 0 0 0 0 0 0 0 0 0 0 0 0 0 0 0 0 0 0 0 0 0 0 0 0 0 0 0 0 0 0 0 0 0 0 0 0 0 0 0 0 0 0 0 0 0 0 0 0 0 0 0 0 0 0 0 0 0 0 0 0 0 0 0 0 0 0 0 0 0 0 0 0 0 0 0 0 0 0 0 0 0 0 0 0 0 0 0 0 0 0 0 0 0 0 0 0 0 0 0 0 0 0 0 0 0 0 0 0 0 0 0 0 0 0 0 0 0 0 0 0 0 0 0 0 0 0 0 0 0 0 0 0 0 0 0 0 0 0 0 0 0 0 0 0 0 0 0 0 0 0 0 0 0 0 0 0 0 0 0 0 0 0 0 0 0 0 0 0 0 0 0 0 0 0 0 0 0 0 0 0 0 0 0 0 0 0 0 0 0 0 0 0 0 0 0 0 0 0 0 0 0 0 0 0 0 0 0 0 0 0 0 0 0 0 0 0 0 0 0 0 0 0 0 0 0 0 0 0 0 0 0 0 0 0 0 0 0 0 0 0 0 0 0 0 0 0 0 0 0 0 0 0 0 0 0 0 0 0 0 0 0 0 0 0 0 0 0 0 0 0 0 0 0 0 0 0 0 0 0 0 0 0 0 0 0 0 0 0 0 0 0 0 0 0 0 0 0 0 0 0 0 0 0 0 0 0 0 0 0 0 0 0 0 0 0 0 0 0 0 0 0 0 0 0 0 0 0 0 0 0 0 0 0 0 0 0 0 0 0 0 0 0 0 0 0 0 0 0 0 0 0 0 0 0 0 0 0 0 0 0 0 0 0 0 0 0 0 0 0 0 0 0 0 0 0 0 0 0 0 0 0 0 0 0 0 0 0 0 0 0 0 0 0 0 0 0 0 0 0 0 0 0 0 0 0 0 0 0 0 0 0 0 0 0 0 0 0 0 0 0 0 0 0 0 0 0 0 0 0 0 0 0 0 0 0 0 0 0 0 0 0 0 0 0 0 0 0 0 0 0 0 0 0 0 0 0 0 0 0 0 0 0 0 0 0 0 0 0 0 0 0 0 0 0 0 0 0 0 0 0 0 0 0 0 0 0 0 0 0 0 0 0 0 0 0 0 0 0 0 0 0 0 0 0 0 0 0 0 0 0 0 0 0 0 0 0 0 0 0 0 0 0 0 0 0 0 0 0 0 0 0 0 0 0 0 0 0 0 0 0 0 0 0 0 0 0 0 0 0 0 0 0 0 0 0 0 0 0 0 0 0 0 0 0 0 0 0 0 0 0 0 0 0 0 0 0 0 0 0 0 0 0 0 0 0 0 0 0 0 0 0 0 0 0 0 0 0 0 0 0 0 0 0 0 0 0 0 0 0 0 0 0 0 0 0 0 0 0 0 0 0 0 0 0 0 0 0 0 0 0 0 0 0 0 0 0 0 0 0 0 0 0 0 0 0 0 0 0 0 0 0 0 0 0 0 0 0 0 0 0 0 0 0 0 0 0 0 0 0 0 0 0 0 0 0 0 0 0 0 0 0 0 0 0 0 0 0 0 0 0 0 0 0 0 0 0 0 0 0 0 0 0 0 0 0 0 0 0 0 0 0 0 0 0 0 0 0 0 0 0 0 0 0 0 0 0 0 0 0 0 0 0 0 0 0 0 0 0 0 0 0 0 0 0 0 0 0 0 0 0 0 0 0 0 0 0 0 0 0 0 0 0 0 0 0 0 0 0 0 0 0 0 0 0 0 0 0 0 0 0 0 0 0 0 0 0 0 0 0 0 0 0 0 0 0 0 0 0 0 0 0 0 0 0 0 0 0 0 0 0 0 0 0 0 0 0 0 0 0 0 0 0 0 0 0 0 0 0 0 0 0 0 0 0 0 0 0 0 0 0 0 0 0 0 0 0 0 0 0 0 0 0 0 0 0 0 0 0 0 0 0 0 0 0 0 0 0 0 0 0 0 0 0 0 0 0 0 0
        </DataArray>
        <DataArray type="Float32" Name="velocity" NumberOfComponents="3" format="ascii">
 -0.0101918652 -0.0034963036 -1.0212331432 -0.0098210594 -0.0033945742 -1.0205001229 -0.0109037605 -0.0037022900 -1.0209691697 -0.0095200592 -0.0033023486 -1.0214147229 -0.0103651595 -0.0035541310 -1.0199663373 -0.0107592857 -0.0036554814 -1.0218059416 -0.0090856357 -0.0031829875 -1.0205838518 -0.0112911110 -0.0038175649 -1.0203255175 -0.0097332619 -0.0033588296 -1.0221508037 -0.0096646849 -0.0033553864 -1.0196099612 -0.0115108340 -0.0038731002 -1.0215023877 -0.0087374741 -0.0030783843 -1.0213174437 -0.0110047409 -0.0037405635 -1.0195147646 -0.0105458755 -0.0035894817 -1.0225500640 -0.0087935550 -0.0031036771 -1.0198779741 -0.0119404284 -0.0040019414 -1.0206329161 -0.0090003289 -0.0031476333 -1.0222853024 -0.0101227763 -0.0034907593 -1.0189981036 -0.0115589015 -0.0038820489 -1.0222606774 -0.0082252952 -0.0029351482 -1.0207308033 -0.0117667573 -0.0039589435 -1.0195622110 -0.0098997911 -0.0034010616 -1.0230206192 -0.0089685894 -0.0031588543 -1.0191040246 -0.0122970738 -0.0040999912 -1.0213058169 -0.0082621578 -0.0029380720 -1.0219287057 -0.0109081391 -0.0037180650 -1.0186972526 -0.0111724818 -0.0037661794 -1.0230391687 -0.0080381427 -0.0028867430 -1.0199008454 -0.0124327217 -0.0041471623 -1.0200159282 -0.0090258526 -0.0031498726 -1.0230810899 -0.0095549063 -0.0033313750 -1.0184374429 -0.0123016934 -0.0040956579 -1.0221913719 -0.0077029723 -0.0027822738 -1.0211968779 -0.0118152186 -0.0039778166 -1.0187851549 -0.0104060582 -0.0035424582 -1.0236296178 -0.0082259287 -0.0029464265 -1.0189943811 -0.0128550442 -0.0042634088 -1.0207907548 -0.0081373868 -0.0028975210 -1.0226711071 -0.0104727711 -0.0035973364 -1.0180379575 -0.0119147871 -0.0039785431 -1.0231428854 -0.0074359502 -0.0027117875 -1.0202354959 -0.0126341125 -0.0042097290 -1.0192692384 -0.0093787788 -0.0032464399 -1.0238189682 -0.0088167759 -0.0031213158 -1.0181605910 -0.0129499547 -0.0042842550 -1.0217908843 -0.0074242609 -0.0026980449 -1.0218610577 -0.0115563263 -0.0039083259 -1.0180330742 -0.0111253438 -0.0037467140 -1.0239683406 -0.0075256760 -0.0027442745 -1.0191811809 -0.0132092639 -0.0043695506 -1.0200884598 -0.0082953998 -0.0029376817 -1.0234826085 -0.0097915252 -0.0034048763 -1.0175616772 -0.0126639394 -0.0041950274 -1.0229092836 -0.0070040631 -0.0025842698 -1.0207949155 -0.0125805861 -0.0041995145 -1.0184638894 -0.0099981228 -0.0034203689 -1.0244151992 -0.0080205936 -0.0028928387 -1.0181588748 -0.0134582557 -0.0044341719 -1.0211579263 -0.0073742595 -0.0026785613 -1.0226644916 -0.0110230255 -0.0037595637 -1.0173626431 -0.0119538421 -0.0039843351 -1.0239904059 -0.0069357856 -0.0025722458 -1.0196102835 -0.0133596309 -0.0044179057 -1.0192742917 -0.0087227162 -0.0030551704 -1.0242873220 -0.0089509240 -0.0031652059 -1.0173167722 -0.0133342945 -0.0043906999 -1.0223937835 -0.0067555473 -0.0025082688 -1.0215275736 -0.0122739015 -0.0041166804 -1.0176535994 -0.0108180135 -0.0036536143 -1.0247354577 -0.0072655173 -0.0026744967 -1.0184171426 -0.0138014275 -0.0045376945 -1.0203693453 -0.0075574114 -0.0027253996 -1.0235599879 -0.0102498312 -0.0035408808 -1.0168606294 -0.0127862477 -0.0042251608 -1.0236864787 -0.0064953014 -0.0024418383 -1.0202358311 -0.0132985595 -0.0044059759 -1.0183985406 -0.0094228084 -0.0032524698 -1.0248526691 -0.0080512789 -0.0029069089 -1.0173351132 -0.0138716219 -0.0045495402 -1.0216679640 -0.0067002741 -0.0024868421 -1.0223983321 -0.0116844450 -0.0039522545 -1.0169124559 -0.0117424896 -0.0039189402 -1.0247323054 -0.0066235705 -0.0024871714 -1.0189021873 -0.0139670337 -0.0045908949 -1.0194813221 -0.0080005488 -0.0028468442 -1.0244561442 -0.0093438401 -0.0032824551 -1.0166141082 -0.0135326105 -0.0044431238 -1.0230962049 -0.0062218115 -0.0023583289 -1.0210219213 -0.0130068336 -0.0043279860 -1.0175019593 -0.0103044015 -0.0035053207 -1.0248758821 -0.0071939593 -0.0026590714 -1.0176174405 -0.0142504189 -0.0046637920 -1.0208002960 -0.0068533713 -0.0025245193 -1.0233777026 -0.0108166043 -0.0037062923 -1.0164288629 -0.0126963004 -0.0041943501 -1.0244685286 -0.0061332639 -0.0023421712 -1.0195738619 -0.0139434585 -0.0045901979 -1.0185316801 -0.0088035125 -0.0030752151 -1.0247790262 -0.0083771070 -0.0030051058 -1.0166010601 -0.0141369081 -0.0046216776 -1.0222930146 -0.0061247357 -0.0023245748 -1.0219444445 -0.0123642868 -0.0041487750 -1.0166902969 -0.0112323878 -0.0037724975 -1.0247407363 -0.0064628169 -0.0024459491 -1.0181337487 -0.0144614189 -0.0047304691 -1.0198419231 -0.0072687394 -0.0026374152 -1.0243645351 -0.0098977070 -0.0034440529 -1.0161995511 -0.0135708192 -0.0044490590 -1.0238833141 -0.0058081074 -0.0022435873 -1.0203986303 -0.0137084266 -0.0045290309 -1.0175485868 -0.0097340279 -0.0033432412 -1.0246245498 -0.0073593421 -0.0027116348 -1.0168190747 -0.0145767117 -0.0047539102 -1.0213513096 -0.0062175259 -0.0023445408 -1.0229870798 -0.0114009574 -0.0038753993 -1.0162082921 -0.0122227472 -0.0040575192 -1.0246141918 -0.0058964551 -0.0022789129 -1.0188382153 -0.0144975288 -0.0047473345 -1.0188243590 -0.0081721154 -0.0028954113 -1.0245608402 -0.0089571994 -0.0031745039 -1.0161435967 -0.0142732706 -0.0046561622 -1.0230204556 -0.0056515208 -0.0021925313 -1.0213561321 -0.0130591631 -0.0043484743 -1.0166458605 -0.0106528253 -0.0036078349 -1.0244809708 -0.0064467501 -0.0024465570 -1.0173170843 -0.0148489960 -0.0048386056 -1.0203254855 -0.0065524351 -0.0024336308 -1.0240859438 -0.0104628701 -0.0036078438 -1.0159490784 -0.0133037548 -0.0043688991 -1.0244338052 -0.0055029097 -0.0021605170 -1.0196920591 -0.0143421352 -0.0047095043 -1.0177658008 -0.0091532010 -0.0031779922 -1.0243997594 -0.0079445252 -0.0028831884 -1.0162529139 -0.0147934430 -0.0048119182 -1.0220068885 -0.0056703065 -0.0021910089 -1.0224379924 -0.0120107495 -0.0040510305 -1.0161091821 -0.0116017891 -0.0038808463 -1.0243748534 -0.0057736360 -0.0022487441 -1.0180436196 -0.0149544407 -0.0048757648 -1.0192459406 -0.0075016590 -0.0027043331 -1.0243528490 -0.0095393675 -0.0033434899 -1.0158438367 -0.0142740761 -0.0046512406 -1.0238267936 -0.0052777232 -0.0020896247 -1.0206729609 -0.0137926411 -0.0045583469 -1.0167429746 -0.0100813517 -0.0034451791 -1.0242704180 -0.0068144399 -0.0025568756 -1.0165660913 -0.0151378295 -0.0049177403 -1.0209130370 -0.0058930458 -0.0022473200 -1.0236289225 -0.0110349938 -0.0037729915 -1.0157988747 -0.0126371994 -0.0041785643 -1.0242846662 -0.0052969629 -0.0021063344 -1.0189221677 -0.0148851851 -0.0048630548 -1.0181247462 -0.0085506546 -0.0030062428 -1.0242168103 -0.0085775651 -0.0030672510 -1.0158784485 -0.0149081711 -0.0048400220 -1.0227612784 -0.0052185464 -0.0020655976 -1.0217753374 -0.0126619548 -0.0042379343 -1.0161058856 -0.0110060372 -0.0037111596 -1.0241742413 -0.0057808556 -0.0022562132 -1.0171990440 -0.0153164833 -0.0049762923 -1.0197735176 -0.0067735812 -0.0024966858 -1.0241500144 -0.0101083765 -0.0035080760 -1.0156416363 -0.0138126222 -0.0045167087 -1.0241560413 -0.0049966628 -0.0020137679 -1.0199215566 -0.0145345032 -0.0047696981 -1.0169852375 -0.0095087187 -0.0032819153 -1.0241029427 -0.0075190239 -0.0027622535 -1.0160690037 -0.0153356595 -0.0049701552 -1.0215950346 -0.0053366042 -0.0020916254 -1.0230041103 -0.0116262537 -0.0039431281 -1.0157273480 -0.0119814583 -0.0039915862 -1.0240959054 -0.0051844772 -0.0020793203 -1.0180979598 -0.0153319826 -0.0049882500 -1.0185983590 -0.0079120182 -0.0028239891 -1.0240568875 -0.0091769473 -0.0032409582 -1.0156129316 -0.0148996278 -0.0048322812 -1.0235889397 -0.0048597323 -0.0019673619 -1.0210341220 -0.0133703039 -0.0044406500 -1.0161944558 -0.0104296793 -0.0035467730 -1.0240151966 -0.0063056413 -0.0024114768 -1.0164697058 -0.0155903441 -0.0050509303 -1.0203923312 -0.0059815632 -0.0022708973 -1.0239145670 -0.0106758911 -0.0036717593 -1.0155136088 -0.0130676520 -0.0043038417 -1.0240114004 -0.0048011388 -0.0019627983 -1.0191169434 -0.0151592723 -0.0049464424 -1.0173845451 -0.0089221516 -0.0031144822 -1.0239621521 -0.0081855035 -0.0029557834 -1.0157147535 -0.0154477427 -0.0049973686 -1.0223699765 -0.0048851247 -0.0019667540 -1.0222695698 -0.0122502486 -0.0041222086 -1.0157263170 -0.0113673222 -0.0038163136 -1.0239438105 -0.0051862808 -0.0020854253 -1.0172236113 -0.0156865910 -0.0050863910 -1.0191655175 -0.0072218216 -0.0026269094 -1.0239015508 -0.0097539713 -0.0034077393 -1.0154271970 -0.0143249005 -0.0046655792 -1.0238654358 -0.0045867422 -0.0018941087 -1.0202377026 -0.0141503160 -0.0046632872 -1.0163838729 -0.0098598766 -0.0033840897 -1.0238839884 -0.0070724348 -0.0026346780 -1.0159772289 -0.0157834966 -0.0051018666 -1.0210956500 -0.0051914391 -0.0020465647 -1.0235363502 -0.0112543613 -0.0038381899 -1.0154476674 -0.0123776563 -0.0041067092 -1.0238733537 -0.0046859087 -0.0019351777 -1.0182643998 -0.0156226939 -0.0050761030 -1.0179059433 -0.0083081283 -0.0029390840 -1.0238347754 -0.0088065075 -0.0031356421 -1.0154576117 -0.0154577147 -0.0049947590 -1.0232261657 -0.0045274797 -0.0018692330 -1.0214690191 -0.0129218727 -0.0043145037 -1.0157963199 -0.0107810538 -0.0036488651 -1.0238188410 -0.0057772958 -0.0022598413 -1.0164714366 -0.0159572134 -0.0051599183 -1.0198127106 -0.0064641974 -0.0024105808 -1.0237303414 -0.0103215202 -0.0035713984 -1.0153044985 -0.0135238910 -0.0044362860 -1.0237746381 -0.0043915807 -0.0018434647 -1.0193984152 -0.0150021617 -0.0049057521 -1.0166964470 -0.0092839295 -0.0032195330 -1.0237700008 -0.0077763207 -0.0028389719 -1.0156184083 -0.0159016718 -0.0051307409 -1.0218842753 -0.0046331925 -0.0018908605 -1.0228319889 -0.0118568396 -0.0040111452 -1.0154388499 -0.0117396067 -0.0039243436 -1.0237572964 -0.0046606155 -0.0019336822 -1.0173625582 -0.0159810553 -0.0051750715 -1.0185121592 -0.0076520042 -0.0027515977 -1.0237083528 -0.0093963678 -0.0033060954 -1.0152736852 -0.0148648748 -0.0048223790 -1.0235777942 -0.0042536824 -0.0017960484 -1.0206256253 -0.0136569825 -0.0045245100 -1.0159457916 -0.0102091544 -0.0034854222 -1.0237123437 -0.0065989256 -0.0024989430 -1.0159533712 -0.0161527747 -0.0052114294 -1.0205342681 -0.0056268130 -0.0021716447 -1.0235149854 -0.0108921093 -0.0037355885 -1.0152352209 -0.0127939917 -0.0042274174 -1.0236811275 -0.0042678862 -0.0018135857 -1.0185191630 -0.0157867467 -0.0051278378 -1.0171775042 -0.0086888447 -0.0030494312 -1.0236643101 -0.0084244757 -0.0030266607 -1.0153552871 -0.0159413588 -0.0051365255 -1.0227613315 -0.0042629419 -0.0017901041 -1.0219716388 -0.0124974626 -0.0041946767 -1.0154880246 -0.0111382214 -0.0037523927 -1.0236580109 -0.0052197689 -0.0020993211 -1.0165530132 -0.0162553124 -0.0052494597 -1.0191878634 -0.0069380114 -0.0025475899 -1.0235685180 -0.0099686655 -0.0034711375 -1.0151478152 -0.0140098893 -0.0045771827 -1.0235516370 -0.0040538040 -0.0017442805 -1.0197503807 -0.0144702239 -0.0047563217 -1.0161917899 -0.0096388248 -0.0033223563 -1.0236173503 -0.0073459845 -0.0027157598 -1.0155737186 -0.0162805296 -0.0052429947 -1.0213319922 -0.0047276853 -0.0019156439 -1.0231972361 -0.0114784237 -0.0039039781 -1.0152149949 -0.0121260800 -0.0040362844 -1.0235959884 -0.0042148487 -0.0018042700 -1.0175951145 -0.0162144479 -0.0052464918 -1.0178171506 -0.0080607531 -0.0028698609 -1.0235580258 -0.0090323196 -0.0032023197 -1.0151643439 -0.0154343502 -0.0049877485 -1.0232739480 -0.0039827388 -0.0017154091 -1.0210769228 -0.0131916299 -0.0043931609 -1.0156018941 -0.0105593154 -0.0035868171 -1.0235705912 -0.0060948114 -0.0023540525 -1.0159877923 -0.0164569166 -0.0053025903 -1.0199273634 -0.0061505774 -0.0023227167 -1.0233957077 -0.0105361760 -0.0036344938 -1.0150707691 -0.0132341560 -0.0043548768 -1.0235025445 -0.0039196633 -0.0017115725 -1.0188446906 -0.0153668405 -0.0050112700 -1.0165614768 -0.0090573614 -0.0031560618 -1.0235275763 -0.0080272265 -0.0029130482 -1.0152942692 -0.0163438893 -0.0052555389 -1.0222143704 -0.0040656540 -0.0017299052 -1.0225320567 -0.0120939123 -0.0040804256 -1.0152439714 -0.0115041460 -0.0038582950 -1.0235188456 -0.0046365577 -0.0019309456 -1.0167103963 -0.0164976313 -0.0053232393 -1.0185245219 -0.0073845613 -0.0026765582 -1.0234405742 -0.0096142148 -0.0033701698 -1.0150300678 -0.0145284303 -0.0047274430 -1.0233247959 -0.0037754424 -0.0016617634 -1.0201624069 -0.0139552203 -0.0046110685 -1.0157939574 -0.0099897453 -0.0034238735 -1.0234905745 -0.0068905304 -0.0025850553 -1.0155734793 -0.0165951456 -0.0053371132 -1.0207326352 -0.0052791082 -0.0020741257 -1.0231605118 -0.0111114388 -0.0037997932 -1.0150378046 -0.0125302024 -0.0041532065 -1.0234477548 -0.0038463192 -0.0016965481 -1.0179020491 -0.0162661560 -0.0052659217 -1.0170987697 -0.0084515225 -0.0029827807 -1.0234364520 -0.0086585303 -0.0030955265 -1.0150897469 -0.0160226580 -0.0051587860 -1.0229288764 -0.0037624690 -0.0016489296 -1.0215880936 -0.0127532243 -0.0042691047 -1.0153269128 -0.0109132151 -0.0036891628 -1.0234479586 -0.0055578507 -0.0021993782 -1.0160781557 -0.0167073301 -0.0053785619 -1.0192845219 -0.0066443118 -0.0024650362 -1.0232974624 -0.0101834144 -0.0035340774 -1.0149426088 -0.0137018467 -0.0044902280 -1.0233251687 -0.0036306370 -0.0016261749 -1.0192285449 -0.0148012822 -0.0048520039 -1.0160861271 -0.0094168487 -0.0032599560 -1.0234135480 -0.0076109982 -0.0027937634 -1.0152685631 -0.0166761421 -0.0053547327 -1.0216128313 -0.0043357531 -0.0018056192 -1.0228135542 -0.0117073839 -0.0039707520 -1.0150480249 -0.0118819988 -0.0039675409 -1.0233921118 -0.0040499482 -0.0017610894 -1.0169468789 -0.0166936508 -0.0053839686 -1.0178241347 -0.0078070039 -0.0027984589 -1.0233360042 -0.0092550726 -0.0032676590 -1.0149431183 -0.0150804943 -0.0048874488 -1.0230783952 -0.0035460487 -0.0015929527 -1.0206286344 -0.0134721361 -0.0044744776 -1.0154740267 -0.0103395775 -0.0035249687 -1.0233809614 -0.0064062291 -0.0024458026 -1.0156154183 -0.0168558051 -0.0054159676 -1.0200987959 -0.0058254260 -0.0022312498 -1.0231070036 -0.0107525508 -0.0036977035 -1.0148963739 -0.0129556546 -0.0042762244 -1.0233035187 -0.0035411106 -0.0016066223 -1.0182677879 -0.0157303738 -0.0051159255 -1.0165100094 -0.0088278040 -0.0030914165 -1.0233346289 -0.0082715726 -0.0029847662 -1.0150445661 -0.0165832591 -0.0053223996 -1.0225012946 -0.0036007483 -0.0015989334 -1.0221491835 -0.0123378956 -0.0041513360 -1.0151043667 -0.0112738184 -0.0037933570 -1.0233371112 -0.0049883792 -0.0020350022 -1.0162267037 -0.0169135569 -0.0054420555 -1.0186099577 -0.0071082837 -0.0025987117 -1.0232153034 -0.0098307756 -0.0034335122 -1.0148432527 -0.0142003905 -0.0046344956 -1.0231380503 -0.0033910229 -0.0015546366 -1.0196626314 -0.0142660717 -0.0047008609 -1.0157025111 -0.0097703643 -0.0033620376 -1.0233149924 -0.0071719151 -0.0026677100 -1.0152756786 -0.0169513737 -0.0054377867 -1.0209762274 -0.0049215502 -0.0019735900 -1.0228356274 -0.0113342526 -0.0038646852 -1.0148892988 -0.0122751702 -0.0040811478 -1.0232708866 -0.0035484725 -0.0016151066 -1.0172707240 -0.0166755509 -0.0053833486 -1.0171083338 -0.0082090238 -0.0029143944 -1.0232477474 -0.0088880798 -0.0031627302 -1.0148819790 -0.0156635934 -0.0050565881 -1.0227964504 -0.0033569588 -0.0015353749 -1.0211470418 -0.0130181177 -0.0043458440 -1.0152142010 -0.0106912150 -0.0036265108 -1.0232824785 -0.0058900677 -0.0022971299 -1.0157006979 -0.0170717371 -0.0054821619 -1.0194374597 -0.0063395040 -0.0023790922 -1.0230580946 -0.0103986015 -0.0035968493 -1.0147833789 -0.0134062256 -0.0044064755 -1.0231554298 -0.0032879505 -0.0015313255 -1.0186816840 -0.0151451012 -0.0049509776 -1.0160384638 -0.0091929392 -0.0031967658 -1.0232465330 -0.0078678453 -0.0028690228 -1.0150260862 -0.0169876802 -0.0054421331 -1.0219265448 -0.0039534155 -0.0016983395 -1.0224312035 -0.0119417640 -0.0040388154 -1.0149226706 -0.0116442367 -0.0039003277 -1.0232325472 -0.0043914427 -0.0018623383 -1.0164387865 -0.0170831358 -0.0054952354 -1.0179035530 -0.0075457283 -0.0027247014 -1.0231445688 -0.0094752332 -0.0033319609 -1.0147678065 -0.0147320386 -0.0047883967 -1.0229301061 -0.0031922213 -0.001494