<?xml version="1.0"?>
<VTKFile type="UnstructuredGrid" version="0.1" byte_order="LittleEndian">
  <UnstructuredGrid>
    <FieldData>
      <DataArray type="Float32" Name="TIME"  NumberOfTuples="1" format="ascii"> 0.2500000000 </DataArray>
      <DataArray type="Int32"   Name="STEP"  NumberOfTuples="1" format="ascii"> 25000 </DataArray>
    </FieldData>
    <Piece NumberOfPoints="2004" NumberOfCells="2004">
      <Points>
        <DataArray type="Float32" NumberOfComponents="3" format="ascii">
 0.0315107451 0.9998827396 -0.1467513736 -0.0405242882 0.9988791547 -0.1097637042 0.0060620882 0.9963052567 -0.2170761968 0.0507385640 0.9966647361 -0.0803889927 -0.0938365058 0.9996875573 -0.1633546861 0.0885433078 0.9975859662 -0.2031353519 -0.0296306395 0.9910857418 -0.0370880825 -0.0563844530 0.9913498389 -0.2551418157 0.1229455181 0.9984038673 -0.1017844428 -0.1282027847 0.9978390575 -0.0939207390 0.0610413577 0.9874495286 -0.2773965941 0.0449385097 0.9847317555 -0.0029904839 -0.1375696635 0.9952864193 -0.2264501774 0.1618646651 0.9989708229 -0.1823354466 -0.0977784074 0.9857530582 -0.0079197870 -0.0224797892 0.9780149579 -0.3195657945 0.1390906102 0.9898074226 -0.0293806062 -0.1895354391 0.9998363767 -0.1389649066 0.1363146792 0.9864521053 -0.2824792414 -0.0091644995 0.9719507797 0.0478640482 -0.1295381413 0.9823025889 -0.3019098781 0.2086467274 0.9993025856 -0.1186239006 -0.1753619192 0.9890067112 -0.0248890569 0.0468079363 0.9678934948 -0.3551793738 0.1089710321 0.9731517307 0.0437127848 -0.2186998173 0.9963645528 -0.2165409151 0.2116609151 0.9929351514 -0.2445559789 -0.0895150506 0.9661828362 0.0667036951 -0.0796688047 0.9637442108 -0.3680674633 0.2176580291 0.9902970388 -0.0322422142 -0.2438554477 0.9968656740 -0.0825663920 0.1344832021 0.9676261826 -0.3560149729 0.0421043979 0.9548836618 0.0992532834 -0.2061339643 0.9812682726 -0.3063773908 0.2685693907 0.9995218604 -0.1689622064 -0.1808757060 0.9717433129 0.0485403537 0.0012164819 0.9482275857 -0.4102465968 0.1834856619 0.9696279950 0.0557221773 -0.2845578092 0.9993643239 -0.1731793723 0.2257209772 0.9783758386 -0.3180972474 -0.0498107579 0.9442530602 0.1260267659 -0.1516703122 0.9568965718 -0.3877029846 0.2890459363 0.9952619003 -0.0674446879 -0.2677642985 0.9860563402 -0.0094835397 0.1012666196 0.9441728449 -0.4200803704 0.1110508292 0.9440727308 0.1264895143 -0.2820026902 0.9868548126 -0.2804210867 0.3034547449 0.9934430298 -0.2402866607 -0.1551441736 0.9477123765 0.1176166436 -0.0641114724 0.9331571454 -0.4450574769 0.2623503668 0.9742632166 0.0397675467 -0.3309920718 0.9982023798 -0.1055931987 0.2088807233 0.9552046527 -0.3922125545 0.0113044803 0.9248913092 0.1684195496 -0.2318955574 0.9589376141 -0.3820553919 0.3467696564 0.9985418882 -0.1289487074 -0.2615906149 0.9653647112 0.0691781141 0.0450684772 0.9209159623 -0.4702009432 0.1911110602 0.9421302689 0.1310841363 -0.3500294247 0.9937469520 -0.2273490226 0.3099042298 0.9771050409 -0.3223276930 -0.1048010971 0.9212468753 0.1756612352 -0.1427375295 0.9262239029 -0.4596173808 0.3390093695 0.9837667453 -0.0028007431 -0.3515092507 0.9867684733 -0.0223905019 0.1657054812 0.9267688079 -0.4584378680 0.0874996643 0.9123724992 0.1926316331 -0.3147327472 0.9688263017 -0.3513264589 0.3808080000 0.9888713298 -0.2102340056 -0.2273978957 0.9365824762 0.1436247570 -0.0278816696 0.9026823188 -0.5038970522 0.2774247462 0.9497175132 0.1126208519 -0.3958871391 0.9818687434 -0.1507067258 0.2870900608 0.9503614204 -0.4046652040 -0.0358883883 0.8975238352 0.2188557677 -0.2302327694 0.9293435267 -0.4531883612 0.3974713883 0.9736849852 -0.0723419762 -0.3428663431 0.9645699745 0.0664900285 0.1018034084 0.8982958401 -0.5114146692 0.1744573356 0.9096116015 0.1977152065 -0.3877018834 0.9686655599 -0.2927024972 0.3862914461 0.9670367203 -0.3017842204 -0.1698861925 0.9045130149 0.2067685771 -0.1130974975 0.8932266202 -0.5199447978 0.3628662838 0.9601100436 0.0684527626 -0.4089277288 0.9439407999 -0.0611594966 0.2379931515 0.9166505925 -0.4784021078 0.0467403172 0.8810493746 0.2454969186 -0.3223571807 0.9418229484 -0.4238902045 0.4158177045 0.9161927207 -0.1598290157 -0.3054070624 0.9328799071 0.1510266410 0.0224723214 0.8749724195 -0.5486250304 0.2688840443 0.9178932978 0.1821924521 -0.4159936558 0.9020947115 -0.2069626808 0.3659880285 0.9451686971 -0.3961253024 -0.0946929552 0.8748934165 0.2548441707 -0.2075044666 0.8948938507 -0.5172002345 0.4101566936 0.9051957143 -0.0113718534 -0.4026636447 0.9193306537 0.0343594059 0.1682017759 0.8819106270 -0.5380000665 0.1397731871 0.8750364725 0.2546782667 -0.3963358888 0.9209662540 -0.3600817695 0.4149066853 0.8711353874 -0.2517793348 -0.2431041686 0.8950499480 0.2229532665 -0.0683846278 0.8608434288 -0.5691551088 0.3635651077 0.9273954500 0.1407284667 -0.4192432489 0.8360041402 -0.1162784469 0.3167459883 0.9134801161 -0.4825320233 -0.0065570651 0.8526527820 0.2865525904 -0.3083811257 0.9079497557 -0.4934706568 0.4188933878 0.8198521240 -0.1037534352 -0.3790690496 0.9140693399 0.1349188248 0.0833926365 0.8520469466 -0.5812443819 0.2410584880 0.8813333432 0.2450847689 -0.4153009326 0.8226123846 -0.2650462618 0.4052495286 0.8594090212 -0.3497466193 -0.1626372954 0.8584923396 0.2785056469 -0.1684204038 0.8586058828 -0.5723039862 0.4064902833 0.8438825411 0.0508906335 -0.4151371907 0.8040773352 -0.0233698609 0.2427139436 0.8727751941 -0.5518419261 0.0914956187 0.8413107068 0.3015807738 -0.3891309867 0.8793096680 -0.4289955794 0.4190689161 0.7681179376 -0.1948225738 -0.3229154288 0.8916815240 0.2248747751 -0.0123377200 0.8315404053 -0.6078379048 0.3460296612 0.8937390646 0.2115456708 -0.4198504422 0.7507782642 -0.1724780154 0.3824531811 0.8747470740 -0.4565306794 -0.0695416239 0.8291126293 0.3169331401 -0.2762072668 0.8695867624 -0.5564297918 0.4167035813 0.7510273000 -0.0465258249 -0.4040646014 0.8049727649 0.0767612412 0.1529272903 0.8353424133 -0.6030412500 0.1979898224 0.8431089658 0.2992699266 -0.4100656705 0.7691239756 -0.3255758659 0.4136270065 0.7488179074 -0.2887393130 -0.2385499121 0.8493352657 0.2909504494 -0.1168403205 0.8233799111 -0.6178467843 0.3972518781 0.8055690432 0.1171206006 -0.4187961927 0.7124660979 -0.0812605609 0.3236548039 0.8686749581 -0.5522844852 0.0328515442 0.8108334725 0.3387046340 -0.3725350282 0.8536534871 -0.5017129885 0.4198395874 0.6938681663 -0.1385517527 -0.3810150122 0.8346128150 0.1885548305 0.0526322234 0.8071648266 -0.6367741593 0.3115661790 0.8574635859 0.2767965743 -0.4180193533 0.6916066884 -0.2292864073 0.4011117748 0.7595033419 -0.3910731998 -0.1406283219 0.8118023472 0.3375520805 -0.2294508307 0.8294255086 -0.6104898426 0.4119676232 0.7055361585 0.0129420964 -0.4121798118 0.7030481251 0.0138216827 0.2302154921 0.8258613802 -0.6147561478 0.1432742078 0.8061529451 0.3440666395 -0.4015228350 0.7370637889 -0.3901421942 0.4177630435 0.6663108652 -0.2301099254 -0.3206845747 0.8444005286 0.2905730035 -0.0557057257 0.7915656553 -0.6540342665 0.3828996127 0.7869550035 0.1891408358 -0.4200970218 0.6462901127 -0.1377716038 0.3765072961 0.7988169051 -0.5071061721 -0.0340296209 0.7853744485 0.3667076174 -0.3435891909 0.8349813999 -0.5752887914 0.4185820255 0.6415370125 -0.0820815950 -0.3980350662 0.7213227340 0.1185369950 0.1252022996 0.7890232420 -0.6567193336 0.2617889800 0.8165295189 0.3319135350 -0.4139847554 0.6518430741 -0.2879300714 0.4099292734 0.6648749105 -0.3265717073 -0.2192036980 0.8016981603 0.3489828742 -0.1716921158 0.7906227709 -0.6550711174 0.4043951638 0.6779303631 0.0760542693 -0.4170077901 0.6272835004 -0.0457119490 0.3136665457 0.8203809630 -0.6142895010 0.0797094438 0.7727877149 0.3797194976 -0.3888298065 0.7221072333 -0.4603199424 0.4196656239 0.6058805517 -0.1733129529 -0.3710521898 0.7675747777 0.2386110969 0.0130324330 0.7648620948 -0.6815136968 0.3611442587 0.7830094823 0.2675688470 -0.4194358384 0.5988475757 -0.1940784021 0.3939655044 0.6894457289 -0.4338662412 -0.1080124484 0.7661687736 0.3863014287 -0.2955081846 0.8039725408 -0.6374066713 0.4152416064 0.6056868354 -0.0241669973 -0.4078767678 0.6323231581 0.0523417142 0.2049524626 0.7780523193 -0.6681883589 0.2010487748 0.7757870969 0.3766953181 -0.4073440540 0.6272402705 -0.3497706687 0.4155376514 0.5939940486 -0.2660897982 -0.3040806790 0.7960660837 0.3491505866 -0.1057126809 0.7555832633 -0.6905552394 0.3931164924 0.6649115918 0.1443333644 -0.4195430768 0.5710706642 -0.1029760380 0.3640216226 0.7412427315 -0.5579273376 0.0091405593 0.7446477417 0.4069307557 -0.3702790333 0.7213739288 -0.5375627061 0.4196007425 0.5618897405 -0.1170990332 -0.3898937806 0.6621109440 0.1624743300 0.0883710620 0.7444309739 -0.7010160139 0.3249870907 0.7800320455 0.3458749089 -0.4167616326 0.5657723419 -0.2514278605 0.4050112940 0.6045947094 -0.3659519548 -0.1888256678 0.7541000271 0.3980065391 -0.2323117489 0.7626638524 -0.6836645340 0.4094669843 0.5829913840 0.0365196583 -0.4143356428 0.5650901212 -0.0092942162 0.2912494774 0.7724556438 -0.6695659416 0.1326266427 0.7388926641 0.4122412422 -0.3973326584 0.6152930815 -0.4162935314 0.4187337752 0.5408196785 -0.2082929021 -0.3564819626 0.7183374852 0.2906427829 -0.0333077935 0.7258908803 -0.7177404641 0.3766852468 0.6644957403 0.2193483600 -0.4200754704 0.5296241773 -0.1592603161 0.3847868969 0.6390070801 -0.4791334198 -0.0675196893 0.7228188403 0.4264911529 -0.3426132823 0.7312037648 -0.6219140765 0.4175671017 0.5307062246 -0.0602244566 -0.4022983781 0.5804002347 0.0926150345 0.1701512170 0.7310922561 -0.7131046246 0.2643143071 0.7496470324 0.4012538819 -0.4117926920 0.5443491292 -0.3111217827 0.4123939193 0.5399960142 -0.3030903614 -0.2763809960 0.7483720672 0.4008659231 -0.1613861552 0.7238455359 -0.7195542990 0.4006038688 0.5714617239 0.1014229822 -0.4182259494 0.5141994706 -0.0678038211 0.3473994292 0.6990551572 -0.6114171371 0.0583467368 0.7074932697 0.4395370399 -0.3827008497 0.6145261317 -0.4890777133 0.4198689882 0.5011687073 -0.1518617090 -0.3795803927 0.6187892969 0.2091203239 0.0446673024 0.7025554278 -0.7375024741 0.3527711165 0.675078767
[...]
      <PointData Scalars="material ID">
        <DataArray type="Int32" Name="material ID" format="ascii">
 0 0 0 0 0 0 0 0 0 0 0 0 0 0 0 0 0 0 0 0 0 0 0 0 0 0 0 0 0 0 0 0 0 0 0 0 0 0 0 0 0 0 0 0 0 0 0 0 0 0 0 0 0 0 0 0 0 0 0 0 0 0 0 0 0 0 0 0 0 0 0 0 0 0 0 0 0 0 0 0 0 0 0 0 0 0 0 0 0 0 0 0 0 0 0 0 0 0 0 0 0 0 0 0 0 0 0 0 0 0 0 0 0 0 0 0 0 0 0 0 0 0 0 0 0 0 0 0 0 0 0 0 0 0 0 0 0 0 0 0 0 0 0 0 0 0 0 0 0 0 0 0 0 0 0 0 0 0 0 0 0 0 0 0 0 0 0 0 0 0 0 0 0 0 0 0 0 0 0 0 0 0 0 0 0 0 0 0 0 0 0 0 0 0 0 0 0 0 0 0 0 0 0 0 0 0 0 0 0 0 0 0 0 0 0 0 0 0 0 0 0 0 0 0 0 0 0 0 0 0 0 0 0 0 0 0 0 0 0 0 0 0 0 0 0 0 0 0 0 0 0 0 0 0 0 0 0 0 0 0 0 0 0 0 0 0 0 0 0 0 0 0 0 0 0 0 0 0 0 0 0 0 0 0 0 0 0 0 0 0 0 0 0 0 0 0 0 0 0 0 0 0 0 0 0 0 0 0 0 0 0 0 0 0 0 0 0 0 0 0 0 0 0 0 0 0 0 0 0 0 0 0 0 0 0 0 0 0 0 0 0 0 0 0 0 0 0 0 0 0 0 0 0 0 0 0 0 0 0 0 0 0 0 0 0 0 0 0 0 0 0 0 0 0 0 0 0 0 0 0 0 0 0 0 0 0 0 0 0 0 0 0 0 0 0 0 0 0 0 0 0 0 0 0 0 0 0 0 0 0 0 0 0 0 0 0 0 0 0 0 0 0 0 0 0 0 0 0 0 0 0 0 0 0 0 0 0 0 0 0 0 0 0 0 0 0 0 0 0 0 0 0 0 0 0 0 0 0 0 0 0 0 0 0 0 0 0 0 0 0 0 0 0 0 0 0 0 0 0 0 0 0 0 0 0 0 0 0 0 0 0 0 0 0 0 0 0 0 0 0 0 0 0 0 0 0 0 0 0 0 0 0 0 0 0 0 0 0 0 0 0 0 0 0 0 0 0 0 0 0 0 0 0 0 0 0 0 0 0 0 0 0 0 0 0 0 0 0 0 0 0 0 0 0 0 0 0 0 0 0 0 0 0 0 0 0 0 0 0 0 0 0 0 0 0 0 0 0 0 0 0 0 0 0 0 0 0 0 0 0 0 0 0 0 0 0 0 0 0 0 0 0 0 0 0 0 0 0 0 0 0 0 0 0 0 0 0 0 0 0 0 0 0 0 0 0 0 0 0 0 0 0 0 0 0 0 0 0 0 0 0 0 0 0 0 0 0 0 0 0 0 0 0 0 0 0 0 0 0 0 0 0 0 0 0 0 0 0 0 0 0 0 0 0 0 0 0 0 0 0 0 0 0 0 0 0 0 0 0 0 0 0 0 0 0 0 0 0 0 0 0 0 0 0 0 0 0 0 0 0 0 0 0 0 0 0 0 0 0 0 0 0 0 0 0 0 0 0 0 0 0 0 0 0 0 0 0 0 0 0 0 0 0 0 0 0 0 0 0 0 0 0 0 0 0 0 0 0 0 0 0 0 0 0 0 0 0 0 0 0 0 0 0 0 0 0 0 0 0 0 0 0 0 0 0 0 0 0 0 0 0 0 0 0 0 0 0 0 0 0 0 0 0 0 0 0 0 0 0 0 0 0 0 0 0 0 0 0 0 0 0 0 0 0 0 0 0 0 0 0 0 0 0 0 0 0 0 0 0 0 0 0 0 0 0 0 0 0 0 0 0 0 0 0 0 0 0 0 0 0 0 0 0 0 0 0 0 0 0 0 0 0 0 0 0 0 0 0 0 0 0 0 0 0 0 0 0 0 0 0 0 0 0 0 0 0 0 0 0 0 0 0 0 0 0 0 0 0 0 0 0 0 0 0 0 0 0 0 0 0 0 0 0 0 0 0 0 0 0 0 0 0 0 0 0 0 0 0 0 0 0 0 0 0 0 0 0 0 0 0 0 0 0 0 0 0 0 0 0 0 0 0 0 0 0 0 0 0 0 0 0 0 0 0 0 0 0 0 0 0 0 0 0 0 0 0 0 0 0 0 0 0 0 0 0 0 0 0 0 0 0 0 0 0 0 0 0 0 0 0 0 0 0 0 0 0 0 0 0 0 0 0 0 0 0 0 0 0 0 0 0 0 0 0 0 0 0 0 0 0 0 0 0 0 0 0 0 0 0 0 0 0 0 0 0 0 0 0 0 0 0 0 0 0 0 0 0 0 0 0 0 0 0 0 0 0 0 0 0 0 0 0 0 0 0 0 0 0 0 0 0 0 0 0 0 0 0 0 0 0 0 0 0 0 0 0 0 0 0 0 0 0 0 0 0 0 0 0 0 0 0 0 0 0 0 0 0 0 0 0 0 0 0 0 0 0 0 0 0 0 0 0 0 0 0 0 0 0 0 0 0 0 0 0 0 0 0 0 0 0 0 0 0 0 0 0 0 0 0 0 0 0 0 0 0 0 0 0 0 0 0 0 0 0 0 0 0 0 0 0 0 0 0 0 0 0 0 0 0 0 0 0 0 0 0 0 0 0 0 0 0 0 0 0 0 0 0 0 0 0 0 0 0 0 0 0 0 0 0 0 0 0 0 0 0 0 0 0 0 0 0 0 0 0 0 0 0 0 0 0 0 0 0 0 0 0 0 0 0 0 0 0 0 0 0 0 0 0 0 0 0 0 0 0 0 0 0 0 0 0 0 0 0 0 0 0 0 0 0 0 0 0 0 0 0 0 0 0 0 0 0 0 0 0 0 0 0 0 0 0 0 0 0 0 0 0 0 0 0 0 0 0 0 0 0 0 0 0 0 0 0 0 0 0 0 0 0 0 0 0 0 0 0 0 0 0 0 0 0 0 0 0 0 0 0 0 0 0 0 0 0 0 0 0 0 0 0 0 0 0 0 0 0 0 0 0 0 0 0 0 0 0 0 0 0 0 0 0 0 0 0 0 0 0 0 0 0 0 0 0 0 0 0 0 0 0 0 0 0 0 0 0 0 0 0 0 0 0 0 0 0 0 0 0 0 0 0 0 0 0 0 0 0 0 0 0 0 0 0 0 0 0 0 0 0 0 0 0 0 0 0 0 0 0 0 0 0 0 0 0 0 0 0 0 0 0 0 0 0 0 0 0 0 0 0 0 0 0 0 0 0 0 0 0 0 0 0 0 0 0 0 0 0 0 0 0 0 0 0 0 0 0 0 0 0 0 0 0 0 0 0 0 0 0 0 0 0 0 0 0 0 0 0 0 0 0 0 0 0 0 0 0 0 0 0 0 0 0 0 0 0 0 0 0 0 0 0 0 0 0 0 0 0 0 0 0 0 0 0 0 0 0 0 0 0 0 0 0 0 0 0 0 0 0 0 0 0 0 0 0 0 0 0 0 0 0 0 0 0 0 0 0 0 0 0 0 0 0 0 0 0 0 0 0 0 0 0 0 0 0 0 0 0 0 0 0 0 0 0 0 0 0 0 0 0 0 0 0 0 0 0 0 0 0 0 0 0 0 0 0 0 0 0 0 0 0 0 0 0 0 0 0 0 0 0 0 0 0 0 0 0 0 0 0 0 0 0 0 0 0 0 0 0 0 0 0 0 0 0 0 0 0 0 0 0 0 0 0 0 0 0 0 0 0 0 0 0 0 0 0 0 0 0 0 0 0 0 0 0 0 0 0 0 0 0 0 0 0 0 0 0 0 0 0 0 0 0 0 0 0 0 0 0 0 0 0 0 0 0 0 0 0 0 0 0 0 0 0 0 0 0 0 0 0 0 0 0 0 0 0 0 0 0 0 0 0 0 0 0 0 0 0 0 0 0 0 0 0 0 0 0 0 0 0 0 0 0 0 0 0 0 0 0 0 0 0 0 0 0 0 0 0 0 0 0 0 0 0 0 0 0 0 0 0 0 0 0 0 0 0 0 0 0 0 0 0 0 0 0 0 0 0 0 0 0 0 0 0 0 0 0 0 0 0 0 0 0 0 0 0 0 0 0 0 0 0 0 0 0 0 0 0 0 0 0 0 0 0 0 0 0 0 0 0 0 0 0 0 0 0 0 0 0 0 0 0 0 0 0 0 0 0 0 0 0 0 0 0 0 0 0 0 0 0 0 0 0 0 0 0 0 0 0 0 0 0 0 0 0 0 0 0 0 0 0 0 0 0 0 0 0 0 0 0 0 0 0 0 0 0 0 0 0 0 0 0 0 0 0 0 0 0 0 0 0 0 0 0 0 0 0 0 0 0 0 0 0 0 0 0 0 0 0 0 0 0 0 0 0 0 0 0 0 0 0 0 0 0 0 0 0 0 0 0 0 0 0 0 0 0 0 0 0 0
        </DataArray>
        <DataArray type="Float32" Name="velocity" NumberOfComponents="3" format="ascii">
 -0.0040399074 -0.0036746942 1.6929473210 -0.0039550579 -0.0034798916 1.6931178545 -0.0042011418 -0.0040477489 1.6930246450 -0.0038876491 -0.0033227380 1.6929202726 -0.0040779847 -0.0037647365 1.6932358451 -0.0041691889 -0.0039725205 1.6928286842 -0.0037882445 -0.0030946204 1.6931341650 -0.0042883654 -0.0042504789 1.6931941267 -0.0039367492 -0.0034349181 1.6927454472 -0.0039187041 -0.0033973879 1.6933244606 -0.0043393436 -0.0043664673 1.6929454719 -0.0037099353 -0.0029127163 1.6929968054 -0.0042226246 -0.0040997859 1.6933594698 -0.0041215061 -0.0038610985 1.6926531801 -0.0037212577 -0.0029411869 1.6933187218 -0.0044359052 -0.0045912884 1.6931870233 -0.0037705459 -0.0030510004 1.6927539683 -0.0040220480 -0.0036370773 1.6934545466 -0.0043509844 -0.0043921589 1.6927781141 -0.0035930875 -0.0026441409 1.6931886168 -0.0043954811 -0.0044994976 1.6934098475 -0.0039753861 -0.0035227346 1.6925441253 -0.0037602312 -0.0030323815 1.6934794229 -0.0045174199 -0.0047788552 1.6930817400 -0.0036026284 -0.0026641912 1.6929113037 -0.0041999150 -0.0040486156 1.6935398329 -0.0042641124 -0.0041899707 1.6925709517 -0.0035497828 -0.0025456377 1.6934034676 -0.0045469110 -0.0048492301 1.6933938065 -0.0037771172 -0.0030648690 1.6925711758 -0.0038926464 -0.0033391292 1.6935948732 -0.0045193320 -0.0047818384 1.6928820690 -0.0034749426 -0.0023709962 1.6931614639 -0.0044057106 -0.0045244319 1.6935910043 -0.0040908430 -0.0037884787 1.6924055279 -0.0035915329 -0.0026433864 1.6935835439 -0.0046433952 -0.0050713952 1.6932905114 -0.0035750262 -0.0025993285 1.6927590724 -0.0041005127 -0.0038199376 1.6936749862 -0.0044325430 -0.0045794177 1.6926158508 -0.0034133612 -0.0022306439 1.6934286049 -0.0045918331 -0.0049544606 1.6935952295 -0.0038579376 -0.0032502228 1.6923811366 -0.0037248493 -0.0029522735 1.6937069855 -0.0046658826 -0.0051218538 1.6930825268 -0.0034122969 -0.0022255416 1.6930606167 -0.0043462706 -0.0043881452 1.6937354110 -0.0042543289 -0.0041658362 1.6923577271 -0.0034327072 -0.0022769427 1.6936518619 -0.0047229873 -0.0052569266 1.6935201990 -0.0036116953 -0.0026825691 1.6925536314 -0.0039454815 -0.0034625787 1.6937876423 -0.0046021482 -0.0049724155 1.6927772537 -0.0033158124 -0.0020050072 1.6933910278 -0.0045789137 -0.0049258570 1.6937684149 -0.0039990540 -0.0035751678 1.6922313646 -0.0035440941 -0.0025353613 1.6938024662 -0.0047804533 -0.0053883573 1.6933346529 -0.0034017269 -0.0021998767 1.6928872874 -0.0042246608 -0.0041080490 1.6938549137 -0.0044422247 -0.0046004469 1.6924295062 -0.0032991432 -0.0019685480 1.6936766325 -0.0047562669 -0.0053353716 1.6937372693 -0.0037094842 -0.0029068659 1.6923274533 -0.0037544637 -0.0030220443 1.6938952851 -0.0047535706 -0.0053240399 1.6930269533 -0.0032600745 -0.0018754574 1.6932826048 -0.0045085984 -0.0047643961 1.6939060080 -0.0041853264 -0.0040053195 1.6922045381 -0.0033728730 -0.0021403220 1.6938765541 -0.0048574365 -0.0055681073 1.6935985835 -0.0034441984 -0.0022962875 1.6926491198 -0.0040486824 -0.0037026943 1.6940230305 -0.0046306291 -0.0050371108 1.6926235400 -0.0031996836 -0.0017385345 1.6936442809 -0.0047415730 -0.0053027472 1.6939214136 -0.0038688143 -0.0032743861 1.6922467889 -0.0035502463 -0.0025509439 1.6939930870 -0.0048746063 -0.0056058049 1.6933243876 -0.0032483696 -0.0018470881 1.6930977927 -0.0043741389 -0.0044549631 1.6940742179 -0.0043949414 -0.0044903332 1.6923076583 -0.0032275213 -0.0018047895 1.6939145772 -0.0048940870 -0.0056545447 1.6938441337 -0.0035456712 -0.0025289166 1.6923980879 -0.0038426767 -0.0032284185 1.6942539113 -0.0047991928 -0.0054286349 1.6929147722 -0.0031383094 -0.0015960077 1.6935420625 -0.0046745819 -0.0051490207 1.6940665797 -0.0040685227 -0.0037376580 1.6925093493 -0.0033558354 -0.0021023863 1.6940750910 -0.0049595658 -0.0058042812 1.6936299228 -0.0032841083 -0.0019277839 1.6928373377 -0.0041763938 -0.0040011132 1.6944918504 -0.0046109569 -0.0049905599 1.6924700989 -0.0031167696 -0.0015488089 1.6938990655 -0.0048878197 -0.0056415573 1.6940518263 -0.0037278480 -0.0029511101 1.6925806038 -0.0036231941 -0.0027221821 1.6943699480 -0.0049353112 -0.0057455810 1.6932589213 -0.0031171525 -0.0015458250 1.6933605482 -0.0045278906 -0.0048121330 1.6943467683 -0.0042786728 -0.0042248971 1.6927501875 -0.0031902450 -0.0017202368 1.6941326488 -0.0050064197 -0.0059145624 1.6939131738 -0.0033793644 -0.0021459323 1.6925698324 -0.0039673163 -0.0035206514 1.6948495026 -0.0048086127 -0.0054492209 1.6927509485 -0.0030436784 -0.0013793410 1.6938147698 -0.0048336099 -0.0055174816 1.6942140114 -0.0039383235 -0.0034404754 1.6930127822 -0.0033924696 -0.0021889516 1.6943437112 -0.0050340021 -0.0059761202 1.6936116760 -0.0031392594 -0.0015949901 1.6930948799 -0.0043083017 -0.0043088736 1.6949114206 -0.0045031723 -0.0047441628 1.6928344720 -0.0030622307 -0.0014245515 1.6941418047 -0.0050136049 -0.0059328958 1.6941544669 -0.0035840359 -0.0026212556 1.6929138976 -0.0037537000 -0.0030282820 1.6950092581 -0.0049669077 -0.0058176983 1.6931364307 -0.0030090237 -0.0012980946 1.6936499804 -0.0046852614 -0.0051771730 1.6945509724 -0.0041463425 -0.0039230274 1.6932865075 -0.0031857825 -0.0017113701 1.6943335482 -0.0050946577 -0.0061186105 1.6939398977 -0.0032163873 -0.0017709768 1.6927883884 -0.0040948085 -0.0038184502 1.6953024880 -0.0047483393 -0.0053103631 1.6928054836 -0.0029736114 -0.0012193990 1.6940839618 -0.0049773776 -0.0058505578 1.6943434960 -0.0038059353 -0.0031372753 1.6933824919 -0.0035240593 -0.0024975274 1.6949791179 -0.0050837190 -0.0060904712 1.6935407086 -0.0030143534 -0.0013085847 1.6933962023 -0.0044462480 -0.0046295201 1.6951828363 -0.0043614271 -0.0044207608 1.6934012553 -0.0030335371 -0.0013598600 1.6943644352 -0.0051174791 -0.0061733670 1.6942228200 -0.0034315030 -0.0022704701 1.6931381009 -0.0038849658 -0.0033350921 1.6955030775 -0.0049678551 -0.0058187097 1.6929725152 -0.0029233763 -0.0011023498 1.6939459754 -0.0048516195 -0.0055622128 1.6946488551 -0.0040160594 -0.0036248483 1.6936781728 -0.0032681438 -0.0019047785 1.6947691966 -0.0051606228 -0.0062708668 1.6939200468 -0.0030661336 -0.0014257947 1.6930596476 -0.0042241264 -0.0041194350 1.6956118251 -0.0045963107 -0.0049632112 1.6933733399 -0.0029260357 -0.0011113151 1.6943387258 -0.0051007052 -0.0061362395 1.6944490633 -0.0036687933 -0.0028222461 1.6936344014 -0.0036667349 -0.0028311636 1.6955378063 -0.0051104315 -0.0061512725 1.6934136823 -0.0029110011 -0.0010721185 1.6937175168 -0.0045938057 -0.0049715018 1.6953331226 -0.0042255984 -0.0041100287 1.6938289554 -0.0030343215 -0.0013632132 1.6945789630 -0.0051999527 -0.0063641091 1.6942511815 -0.0032660145 -0.0018890875 1.6932696501 -0.0040134862 -0.0036345528 1.6958567127 -0.0048630856 -0.0055784492 1.6932214577 -0.0028587306 -0.0009550702 1.6942342722 -0.0050200615 -0.0059515976 1.6946814057 -0.0038856802 -0.0033256463 1.6939583481 -0.0034268665 -0.0022760677 1.6954085316 -0.0052060691 -0.0063753561 1.6938497320 -0.0029390458 -0.0011345624 1.6933907144 -0.0043579733 -0.0044301081 1.6958132701 -0.0044468144 -0.0046212870 1.6938545313 -0.0028996521 -0.0010520405 1.6945724820 -0.0052023152 -0.0063715141 1.6945221980 -0.0035235877 -0.0024879537 1.6937980461 -0.0038020299 -0.0031466985 1.6959503392 -0.0051092709 -0.0061474249 1.6932513228 -0.0028286799 -0.0008842493 1.6940401005 -0.0047545153 -0.0053431488 1.6953832620 -0.0040943362 -0.0038090429 1.6941447984 -0.0031522328 -0.0016393775 1.6951015659 -0.0052625381 -0.0065085839 1.6942350234 -0.0030860712 -0.0014738736 1.6933404535 -0.0041418469 -0.0039328990 1.6961065836 -0.0046933044 -0.0051900797 1.6937609497 -0.0028134749 -0.0008524659 1.6945057218 -0.0051620209 -0.0062799541 1.6947354386 -0.0037522597 -0.0030188249 1.6941559715 -0.0035772222 -0.0026269838 1.6959026927 -0.0052321931 -0.0064348140 1.6937249537 -0.0028356654 -0.0008982746 1.6937459099 -0.0044994023 -0.0047576781 1.6959284040 -0.0043069285 -0.0043007146 1.6942172500 -0.0028991747 -0.0010525502 1.6947969945 -0.0052831224 -0.0065584494 1.6945565375 -0.0033667719 -0.0021263439 1.6938928978 -0.0039324417 -0.0034501698 1.6962540132 -0.0049786978 -0.0058479449 1.6935551668 -0.0027658060 -0.0007412256 1.6943510610 -0.0049316632 -0.0057521352 1.6953446005 -0.0039646822 -0.0035111791 1.6943780446 -0.0033251186 -0.0020431195 1.6957036091 -0.0053069310 -0.0066106811 1.6941704906 -0.0029064234 -0.0010595430 1.6934391584 -0.0042728357 -0.0042367368 1.6962757084 -0.0045361418 -0.0048300352 1.6941852221 -0.0027864298 -0.0007917746 1.6947550204 -0.0052674349 -0.0065240229 1.6948093800 -0.0036126981 -0.0026973551 1.6942894740 -0.0037174794 -0.0029536851 1.6962737592 -0.0052352605 -0.0064406917 1.6935566829 -0.0027535313 -0.0007110520 1.6940983346 -0.0046517788 -0.0051100029 1.6959687479 -0.0041734925 -0.0039944092 1.6944916785 -0.0030320845 -0.0013634332 1.6953290457 -0.0053449839 -0.0067013049 1.6945478067 -0.0031947146 -0.0017291270 1.6939327872 -0.0040608495 -0.0037484163 1.6964748499 -0.0047962958 -0.0054300915 1.6940492643 -0.0027205836 -0.0006388424 1.6946425513 -0.0051252890 -0.0061986384 1.6952290617 -0.0038337239 -0.0032098470 1.6945479433 -0.0034839980 -0.0024134926 1.6961650263 -0.0053344370 -0.0066733886 1.6940536028 -0.0027789085 -0.0007671019 1.6937393177 -0.0044093936 -0.0045529597 1.6963778287 -0.0043909014 -0.0044968241 1.6945105837 -0.0027797773 -0.0007780659 1.6949861839 -0.0053491103 -0.0067130262 1.6948523983 -0.0034636492 -0.0023535930 1.6943708950 -0.0038508355 -0.0032637785 1.6965523400 -0.0051006841 -0.0061316492 1.6938168330 -0.0026904098 -0.0005676415 1.6944350774 -0.0048187002 -0.0054954288 1.6959392530 -0.0040434116 -0.0036953743 1.6946991765 -0.0032174200 -0.0017957830 1.6959095066 -0.0053899245 -0.0068047347 1.6944926164 -0.0030045810 -0.0012898532 1.6939315583 -0.0041900655 -0.0040480553 1.6966295968 -0.0046301542 -0.0050490502 1.6944383587 -0.0026915767 -0.0005737521 1.6949104396 -0.0053037681 -0.0066101743 1.6951171875 -0.0036984916 -0.0028982771 1.6946672321 -0.0036304356 -0.0027543286 1.6965160458 -0.0053442624 -0.0066948689 1.6938838787 -0.0026938364 -0.0005733041 1.6941213221 -0.0045547193 -0.0048890111 1.6964204329 -0.0042540831 -0.0041825324 1.6947610574 -0.0029054665 -0.0010719853 1.6954790027 -0.0054118042 -0.0068578754 1.6948534538 -0.0033015152 -0.0019792881 1.6944088614 -0.0039803356 -0.0035644488 1.6967593333 -0.0049061267 -0.0056854476 1.6942739684 -0.0026440642 -0.0004628267 1.6947492979 -0.0050034999 -0.0059216642 1.6958408454 -0.0039137592 -0.0033969530 1.6948542897 -0.0033860965 -0.0021886928 1.6963573467 -0.0054195959 -0.0068725292 1.6943874697 -0.0028003766 -0.0008180193 1.6939230315 -0.0043229519 -0.0043557743 1.6967287240 -0.0044781882 -0.0047001383 1.6947410886 -0.0026785986 -0.0005455200 1.6951542272 -0.0054012259 -0.0068354795 1.6951378921 -0.0035558218 -0.0025692232 1.6947445625 -0.0037678811 -0.0030737866 1.6967830791 -0.0052294071 -0.0064305964 1.6940338349 -0.0026291901 -0.0004265788 1.6944869776 -0.0047123077 -0.0052529868 1.6964064737 -0.0041224440 -0.0038797915 1.6949537902 -0.0031028965 -0.0015322227 1.6960519079 -0.0054581144 -0.0069645513 1.6948097092 -0.0031227396 -0.0015662805 1.6944112328 -0.0041088543 -0.0038624384 1.6969087340 -0.0047296461 -0.0052803522 1.6946396960 -0.0026126433 -0.0003923086 1.6950379702 -0.0052073858 -0.0063915052 1.6956743856 -0.0037816365 -0.0030925202 1.6949670380 -0.0035400385 -0.0025468133 1.6967010362 -0.0054347829 -0.0069064722 1.6942282943 -0.0026494721 -0.0004707830 1.6941176232 -0.0044625526 -0.0046786486 1.6967781872 -0.0043367410 -0.0043750490 1.6949771704 -0.0027731424 -0.0007669556 1.6955734240 -0.0054659539 -0.0069851054 1.6951497156 -0.0034022752 -0.0022147840 1.6947861926 -0.0038995593 -0.0033794506 1.6969847031 -0.0050233887 -0.0059576761 1.6944575289 -0.0025811032 -0.0003179220 1.6948264169 -0.0048857713 -0.0056532297 1.6963355375 -0.0039929842 -0.0035817578 1.6951009046 -0.0032825905 -0.0019505759 1.6964983234 -0.0054901504 -0.0070379084 1.6947184462 -0.0029248853 -0.0011090162 1.6943886784 -0.0042392221 -0.0041643518 1.6970096531 -0.0045695419 -0.0049125349 1.6949279783 -0.0025950220 -0.0003534843 1.6953005278 -0.0054120419 -0.0068628864 1.6954745832 -0.0036440259 -0.0027751549 1.6950444328 -0.0036828011 -0.0028785320 1.6969648214 -0.0053623973 -0.0067392656 1.6942318585 -0.0025795480 -0.0003120360 1.6945072049 -0.0046121916 -0.0050243752 1.6967804405 -0.0042023958 -0.0040659945 1.6951612887 -0.0029810190 -0.0012513270 1.6961462576 -0.0055140997 -0.0070961112 1.6951183622 -0.0032342145 -0.0018265955 1.6947975454 -0.0040284544 -0.0036783073 1.6971337578 -0.0048354275 -0.0055259302 1.6948055773 -0.0025472152 -0.0002418666 1.6951376721 -0.0050780888 -0.0060966042 1.6962052633 -0.0038628172 -0.0032818244 1.6952110141 -0.0034454128 -0.0023292205 1.6968431222 -0.0055093168 -0.0070811648 1.6945759285 -0.0027106460 -0.0006138828 1.6943640208 -0.0043743654 -0.0044769887 1.6970675599 -0.0044221605 -0.0045736724 1.6951551919 -0.0026401452 -0.0004601214 1.6956331020 -0.0055095850 -0.0070879663 1.6954365062 -0.0034976704 -0.0024373689 1.6950915830 -0.0038177939 -0.0031918530 1.6971663360 -0.0051482735 -0.0062473351 1.6946159426 -0.0025293254 -0.0001986456 1.6948745208 -0.0047754558 -0.0054012381 1.6967350687 -0.0040720275 -0.0037658314 1.6953041884 -0.0031726181 -0.0016972333 1.6965994350 -0.0055484485 -0.0071749170 1.6950417563 -0.0030483088 -0.0013970100 1.6947852754 -0.0041574179 -0.0039770064 1.6972388900 -0.0046657758 -0.0051359832 1.6950838282 -0.0025258841 -0.0001946223 1.6954212381 -0.0052894102 -0.0065834489 1.6960144698 -0.0037290231 -0.0029732898 1.6952902941 -0.0035947997 -0.0026762607 1.6971093319 -0.0054890214 -0.0070333584 1.6944481490 -0.0025432512 -0.0002281676 1.6945055230 -0.0045174329 -0.0048076426 1.6970850162 -0.0042839191 -0.0042555803 1.6953343055 -0.0028518525 -0.0009533201 1.6962027737 -0.0055600497 -0.0072044170 1.6954173543 -0.0033390354 -0.0020710269 1.6951127117 -0.0039481525 -0.0034941101 1.6973180926 -0.0049482313 -0.0057875606 1.6949475962 -0.0024930663 -0.0001172871 1.6952101390 -0.0049558598 -0.0058173380 1.6966394286 -0.0039427046 -0.0034678440 1.6954137077 -0.0033456662 -0.0020995547 1.6969514884 -0.0055708971 -0.0072258849 1.6949171712 -0.0028430792 -0.0009226926 1.6947607429 -0.0042893067 -0.0042821878 1.6973055703 -0.0045110936 -0.0047802129 1.6953053499 -0.0025265193 -0.0001980692 1.6956967821 -0.0055045528 -0.0070788300 1.6957830656 -0.0035885093 -0.0026490420 1.6953432898 -0.0037343066 -0.0030000360 1.6973143670 -0.0052801893 -0.0065531522 1.6947624542 -0.0024867632 -0.0001004550 1.6948941211 -0.0046718656 -0.0051642633 1.6970620965 -0.0041515277 -0.0039507289 1.6954751745 -0.0030554873 -0.0014271202 1.6966681665 -0.0055965919 -0.0072883939 1.6953551717 -0.0031645062 -0.0016678108 1.6951124553 -0.0040768023 -0.0037921243 1.6974287546 -0.0047677329 -0.0053724956 1.6952176197 -0.0024686207 -0.0000630058 1.6955157432 -0.0051557110 -0.0062779800 1.6964899812 -0.0038115509 -0.0031654281 1.6954955864 -0.0035030484 -0.0024651147 1.6972244128 -0.0055800088 -0.0072457043 1.6947457466 -0.0026231642 -0.0004145263 1.6947471912 -0.0044271232 -0.0046008083 1.6973367205 -0.0043677052 -0.0044502090 1.6954815813 -0.0027165361 -0.0006408893 1.6962292387 -0.0055976740 -0.0072934222 1.6957071479 -0.0034379124 -0.0023013365 1.6953736420 -0.0038672472 -0.0033082926 1.6974708957 -0.0050685491 -0.0060664460 1.6950750552 -0.0024482413 -0.0000140588 1.6952561737 -0.0048412934 -0.0055552220 1.6969966971 -0.0040219566 -0.0036521712 1.6955851769 -0.0032399178 -0.0018558245 1.6970322336 -0.0056217645 -0.0073457809 1.6952481039 -0.0029711883 -0.0012210852 1.6950979998 -0.0042065850 -0.0040925017 1.6975040497 -0.0046043452 -0.0049965833 1.6954350322 -0.0024550536 -0.0000336671 1.6957949180 -0.0053731579 -0.0067788796 1