<?xml version="1.0"?>
<VTKFile type="UnstructuredGrid" version="0.1" byte_order="LittleEndian">
  <UnstructuredGrid>
    <FieldData>
      <DataArray type="Float32" Name="TIME"  NumberOfTuples="1" format="ascii"> 1.0000000000 </DataArray>
      <DataArray type="Int32"   Name="STEP"  NumberOfTuples="1" format="ascii"> 100000 </DataArray>
    </FieldData>
    <Piece NumberOfPoints="2004" NumberOfCells="2004">
      <Points>
        <DataArray type="Float32" NumberOfComponents="3" format="ascii">
 0.0263286448 0.9971660956 -0.1125121735 -0.0458835998 0.9960513446 -0.0758748980 0.0012186953 0.9938055505 -0.1829693269 0.0452367683 0.9937435724 -0.0460682170 -0.0989372441 0.9970262071 -0.1297191164 0.0836318853 0.9950406058 -0.1686277891 -0.0353400250 0.9880343231 -0.0031719733 -0.0610440042 0.9889692352 -0.2213501075 0.1175458986 0.9955459582 -0.0671104401 -0.1336373549 0.9949655766 -0.0604573867 0.0564874856 0.9851333004 -0.2430513310 0.0390640213 0.9815730637 0.0312644522 -0.1423662944 0.9928204258 -0.1930375902 0.1568523077 0.9963590485 -0.1474710695 -0.1036274975 0.9826143834 0.0256514651 -0.0268299113 0.9758311806 -0.2856508205 0.1333421485 0.9867265641 0.0053435121 -0.1947524571 0.9971033669 -0.1057898801 0.1317843793 0.9841489238 -0.2477746663 -0.0152833782 0.9686377629 0.0818184882 -0.1339719201 0.9800682084 -0.2684972951 0.2033271830 0.9964934769 -0.0835343789 -0.1811283724 0.9859228057 0.0083190555 0.0426282279 0.9658168087 -0.3209614310 0.1028707889 0.9698474238 0.0782395732 -0.2235431819 0.9938708842 -0.1835156597 0.2069473388 0.9905128566 -0.2094694596 -0.0957237880 0.9628147141 0.1002533766 -0.0837850966 0.9617114619 -0.3344707959 0.2119224401 0.9872222839 0.0028616031 -0.2493433470 0.9939612681 -0.0496628563 0.1303064948 0.9655490681 -0.3213758532 0.0357372517 0.9514110958 0.1334012093 -0.2105453733 0.9790502402 -0.2733365715 0.2634914410 0.9968653511 -0.1335827803 -0.1869958548 0.9684340885 0.0816676923 -0.0026980345 0.9463217275 -0.3763076096 0.1773266845 0.9662842626 0.0905965857 -0.2896090572 0.9967396775 -0.1404625848 0.2213609189 0.9761790644 -0.2829865884 -0.0563059096 0.9407014329 0.1596992035 -0.1556913947 0.9549266403 -0.3544735813 0.2834790505 0.9922928305 -0.0319814502 -0.2736038873 0.9829282784 0.0232705207 0.0973981968 0.9422937973 -0.3856721350 0.1045515834 0.9405141844 0.1609356235 -0.2865380430 0.9845596044 -0.2477286862 0.2987195665 0.9910044789 -0.2047568433 -0.1615975592 0.9441901708 0.1507928724 -0.0678579754 0.9313605368 -0.4114786494 0.2562673574 0.9709657824 0.0750360351 -0.3363681051 0.9953716886 -0.0731045728 0.2048771367 0.9532362595 -0.3572529292 0.0046042035 0.9212074459 0.2023259607 -0.2359428536 0.9569530646 -0.3492059373 0.3414981919 0.9957597817 -0.0931965633 -0.2678092846 0.9619948728 0.1018970351 0.0414414908 0.9191929251 -0.4361338271 0.1845887349 0.9385548797 0.1659095358 -0.3548192982 0.9912909892 -0.1949637279 0.3055635334 0.9749183920 -0.2868156919 -0.1115349548 0.9175447499 0.2089975106 -0.1464131775 0.9244747452 -0.4264380474 0.3331305428 0.9805974237 0.0328666000 -0.3572857327 0.9836829231 0.0099628890 0.1620205938 0.9250054812 -0.4237723312 0.0806817264 0.9086117065 0.2268659182 -0.3189267942 0.9667501319 -0.3188458228 0.3759271898 0.9863378291 -0.1743464195 -0.2339758404 0.9329828909 0.1764186071 -0.0313459811 0.9010653819 -0.4702365182 0.2709904343 0.9461958606 0.1478852941 -0.4010456005 0.9791789447 -0.1185798891 0.2831454104 0.9484286337 -0.3693438310 -0.0428314049 0.8936867646 0.2524501338 -0.2339382871 0.9275775937 -0.4204206663 0.3919263993 0.9707273566 -0.0364230938 -0.3490711487 0.9612111761 0.0988153683 0.0983736928 0.8966975867 -0.4771433099 0.1676138691 0.9058322319 0.2323594572 -0.3921772527 0.9664117812 -0.2605745141 0.3818507913 0.9647843946 -0.2659358326 -0.1767693442 0.9007176256 0.2397396765 -0.1164837656 0.8916619423 -0.4867232004 0.3566437701 0.9567211142 0.1041610875 -0.4145177764 0.9409765201 -0.0292134113 0.2344033209 0.9149461766 -0.4434194084 0.0396677969 0.8771277109 0.2794379310 -0.3262024049 0.9399700961 -0.3915280450 0.4106924739 0.9135035129 -0.1239970399 -0.3120198015 0.9292602656 0.1834335337 0.0192221704 0.8734913049 -0.5148065451 0.2621143574 0.9141583503 0.2173168793 -0.4208826646 0.8995788052 -0.1751767915 0.3620012599 0.9432070021 -0.3604402832 -0.1018089461 0.8709478996 0.2880853936 -0.2109028187 0.8933239599 -0.4844279441 0.4043167728 0.9020506637 0.0243966693 -0.4087139863 0.9160728240 0.0662584732 0.1648989322 0.8803918567 -0.5034590363 0.1326552816 0.8710834505 0.2890484268 -0.4004877784 0.9189199972 -0.3281407910 0.4102231595 0.8687289119 -0.2160886751 -0.2500645547 0.8912073835 0.2555426275 -0.0715351866 0.8594285587 -0.5358169957 0.3569940796 0.9237846066 0.1763384673 -0.4245699761 0.8332100581 -0.0847127275 0.3131750618 0.9117857112 -0.4471799567 -0.0138271247 0.8486069434 0.3201491677 -0.3118922695 0.9063103497 -0.4611441647 0.4134963546 0.8169909911 -0.0682035588 -0.3856037714 0.9105017913 0.1669136501 0.0802983362 0.8506640707 -0.5472025872 0.2339857061 0.8774063025 0.2799619216 -0.4199119274 0.8202752735 -0.2335002863 0.4010374159 0.8573039050 -0.3141368698 -0.1698667029 0.8544765300 0.3113690760 -0.1715546912 0.8572041164 -0.5394541724 0.4003495389 0.8405466232 0.0864521212 -0.4209117650 0.8009978309 0.0081160172 0.2394766822 0.8712964448 -0.5169701072 0.0841518708 0.8372154009 0.3356141912 -0.3929520770 0.8774750777 -0.3971467821 0.4141092044 0.7655368243 -0.1594293117 -0.3298842042 0.8878358002 0.2570696210 -0.0153033112 0.8302425985 -0.5743194331 0.3391173317 0.8899114158 0.2469667150 -0.4249083197 0.7481572607 -0.1411761430 0.3787555947 0.8729707251 -0.4209817855 -0.0769576358 0.8249757199 0.3501537522 -0.2794164972 0.8681398599 -0.5240652826 0.4110297952 0.7479907529 -0.0111988727 -0.4103212298 0.8015852565 0.1083015309 0.1499367716 0.8340242035 -0.5687157485 0.1906559983 0.8390171107 0.3338214674 -0.4143864268 0.7669728962 -0.2941680393 0.4091190164 0.7465256009 -0.2534300077 -0.2458385163 0.8452838613 0.3234201717 -0.1197566855 0.8221164639 -0.5848561964 0.3907917248 0.8020301512 0.1525188326 -0.4242938663 0.7095650021 -0.0500728085 0.3204186556 0.8671948212 -0.5170356847 0.0253292029 0.8066262634 0.3723615542 -0.3760068105 0.8520418521 -0.4698619527 0.4146075885 0.6911145026 -0.1033838175 -0.3878094091 0.8308809280 0.2202952998 0.0498046806 0.8059538118 -0.6030174025 0.3043394847 0.8534368233 0.3119392309 -0.4228049738 0.6891604276 -0.1981565895 0.3970966824 0.7575258016 -0.3557896336 -0.1481430875 0.8076046040 0.3703770307 -0.2324011839 0.8281432801 -0.5780227995 0.4060067833 0.7023172914 0.0481055217 -0.4181353871 0.6998547372 0.0450107950 0.2272802795 0.8245765638 -0.5800875928 0.1357246887 0.8019255107 0.3782405610 -0.4055335464 0.7351109286 -0.3587906971 0.4129712150 0.6638386863 -0.1950351567 -0.3279705064 0.8403531145 0.3226322535 -0.0584492411 0.7904114434 -0.6208465888 0.3760926224 0.7831954303 0.2244116275 -0.4253239690 0.6435629862 -0.1067925046 0.3730517320 0.7971964952 -0.4718183529 -0.0416864631 0.7810836152 0.3999639613 -0.3467075412 0.8335949023 -0.5433546052 0.4130772286 0.6386101519 -0.0470814108 -0.4044944585 0.7178070714 0.1498486247 0.1224695630 0.7878711076 -0.6226687056 0.2542967837 0.8123353213 0.3666899510 -0.4184889347 0.6495770273 -0.2569020452 0.4056017901 0.6626993547 -0.2915374820 -0.2267727673 0.7974680330 0.3813984083 -0.1744293155 0.7894757133 -0.6224445667 0.3981301098 0.6745179927 0.1110954054 -0.4226782361 0.6242735336 -0.0147778763 0.3107280142 0.8190918864 -0.5792361379 0.0719884124 0.7684530784 0.4134843896 -0.3925031809 0.7203696089 -0.4289521604 0.4145992306 0.6032341021 -0.1384156139 -0.3780889290 0.7636890844 0.2701927396 0.0104198654 0.7637900814 -0.6480767733 0.3539599603 0.7790097257 0.3027215289 -0.4243927018 0.5962936355 -0.1632409611 0.3901551043 0.6876002318 -0.3988316117 -0.1157631135 0.7618203639 0.4191423649 -0.2983287123 0.8027753838 -0.6053353257 0.4094574028 0.6025823337 0.0107060221 -0.4140191661 0.6290116162 0.0833336197 0.2022737912 0.7769327458 -0.6337874094 0.1933409518 0.7714575897 0.4110534855 -0.4115511410 0.6251640987 -0.3187852600 0.4109176217 0.5916328240 -0.2312473339 -0.3116496815 0.7918383689 0.3811402982 -0.1082805349 0.7545431297 -0.6577182011 0.3865226809 0.6612899023 0.1792791049 -0.4249389645 0.5682369753 -0.0722259378 0.3608096950 0.7397791522 -0.5228756700 0.0012888284 0.7402320521 0.4402690983 -0.3735808580 0.7198729781 -0.5061066322 0.4142629323 0.5590708011 -0.0823380766 -0.3965658913 0.6584602989 0.1936425105 0.0858510925 0.7434163965 -0.6672789356 0.3174262567 0.7757929681 0.3808431406 -0.4214431385 0.5633946547 -0.2206782311 0.4008722406 0.6025405898 -0.3311259577 -0.1966319689 0.7497184763 0.4304212482 -0.2349111649 0.7616068431 -0.6514151806 0.4033903152 0.5797007461 0.0712941673 -0.4201826089 0.5619684745 0.0214610462 0.2885763284 0.7713373792 -0.6347668133 0.1247478098 0.7344564660 0.4461561603 -0.4012199103 0.6134209945 -0.3852955585 0.4138344937 0.5382810328 -0.1735993655 -0.3637702604 0.7142916753 0.3221424320 -0.0357462162 0.7249319301 -0.6846457193 0.3697305611 0.6606441543 0.2542125158 -0.4252012526 0.5269636180 -0.1286391974 0.3811935014 0.6373012040 -0.4442971928 -0.0754651021 0.7183457808 0.4593931425 -0.3455092433 0.7299609652 -0.5902932708 0.4119549661 0.5277127726 -0.0255700208 -0.4086356884 0.5769650201 0.1234736089 0.1676882256 0.7301120849 -0.6790147187 0.2564870409 0.7452400377 0.4358358379 -0.4161873568 0.5421547641 -0.2804130833 0.4079509670 0.5377488245 -0.2684283239 -0.2842001566 0.7439847516 0.4328415802 -0.1638144038 0.7228965456 -0.6870822548 0.3942146911 0.5679720482 0.1361183518 -0.4237922435 0.5112579495 -0.0372226812 0.3444443290 0.6977566758 -0.5765742143 0.0503367774 0.7029759010 0.4729975320 -0.3862379668 0.6128771549 -0.4580104867 0.4146973144 0.4984568427 -0.1172854488 -0.3864779759 0.6149951985 0.2402042849 0.0423226409 0.7016546351 -0.7041038037 0.3454175425 0.6709730334 0.337103
[...]
      <PointData Scalars="material ID">
        <DataArray type="Int32" Name="material ID" format="ascii">
 0 0 0 0 0 0 0 0 0 0 0 0 0 0 0 0 0 0 0 0 0 0 0 0 0 0 0 0 0 0 0 0 0 0 0 0 0 0 0 0 0 0 0 0 0 0 0 0 0 0 0 0 0 0 0 0 0 0 0 0 0 0 0 0 0 0 0 0 0 0 0 0 0 0 0 0 0 0 0 0 0 0 0 0 0 0 0 0 0 0 0 0 0 0 0 0 0 0 0 0 0 0 0 0 0 0 0 0 0 0 0 0 0 0 0 0 0 0 0 0 0 0 0 0 0 0 0 0 0 0 0 0 0 0 0 0 0 0 0 0 0 0 0 0 0 0 0 0 0 0 0 0 0 0 0 0 0 0 0 0 0 0 0 0 0 0 0 0 0 0 0 0 0 0 0 0 0 0 0 0 0 0 0 0 0 0 0 0 0 0 0 0 0 0 0 0 0 0 0 0 0 0 0 0 0 0 0 0 0 0 0 0 0 0 0 0 0 0 0 0 0 0 0 0 0 0 0 0 0 0 0 0 0 0 0 0 0 0 0 0 0 0 0 0 0 0 0 0 0 0 0 0 0 0 0 0 0 0 0 0 0 0 0 0 0 0 0 0 0 0 0 0 0 0 0 0 0 0 0 0 0 0 0 0 0 0 0 0 0 0 0 0 0 0 0 0 0 0 0 0 0 0 0 0 0 0 0 0 0 0 0 0 0 0 0 0 0 0 0 0 0 0 0 0 0 0 0 0 0 0 0 0 0 0 0 0 0 0 0 0 0 0 0 0 0 0 0 0 0 0 0 0 0 0 0 0 0 0 0 0 0 0 0 0 0 0 0 0 0 0 0 0 0 0 0 0 0 0 0 0 0 0 0 0 0 0 0 0 0 0 0 0 0 0 0 0 0 0 0 0 0 0 0 0 0 0 0 0 0 0 0 0 0 0 0 0 0 0 0 0 0 0 0 0 0 0 0 0 0 0 0 0 0 0 0 0 0 0 0 0 0 0 0 0 0 0 0 0 0 0 0 0 0 0 0 0 0 0 0 0 0 0 0 0 0 0 0 0 0 0 0 0 0 0 0 0 0 0 0 0 0 0 0 0 0 0 0 0 0 0 0 0 0 0 0 0 0 0 0 0 0 0 0 0 0 0 0 0 0 0 0 0 0 0 0 0 0 0 0 0 0 0 0 0 0 0 0 0 0 0 0 0 0 0 0 0 0 0 0 0 0 0 0 0 0 0 0 0 0 0 0 0 0 0 0 0 0 0 0 0 0 0 0 0 0 0 0 0 0 0 0 0 0 0 0 0 0 0 0 0 0 0 0 0 0 0 0 0 0 0 0 0 0 0 0 0 0 0 0 0 0 0 0 0 0 0 0 0 0 0 0 0 0 0 0 0 0 0 0 0 0 0 0 0 0 0 0 0 0 0 0 0 0 0 0 0 0 0 0 0 0 0 0 0 0 0 0 0 0 0 0 0 0 0 0 0 0 0 0 0 0 0 0 0 0 0 0 0 0 0 0 0 0 0 0 0 0 0 0 0 0 0 0 0 0 0 0 0 0 0 0 0 0 0 0 0 0 0 0 0 0 0 0 0 0 0 0 0 0 0 0 0 0 0 0 0 0 0 0 0 0 0 0 0 0 0 0 0 0 0 0 0 0 0 0 0 0 0 0 0 0 0 0 0 0 0 0 0 0 0 0 0 0 0 0 0 0 0 0 0 0 0 0 0 0 0 0 0 0 0 0 0 0 0 0 0 0 0 0 0 0 0 0 0 0 0 0 0 0 0 0 0 0 0 0 0 0 0 0 0 0 0 0 0 0 0 0 0 0 0 0 0 0 0 0 0 0 0 0 0 0 0 0 0 0 0 0 0 0 0 0 0 0 0 0 0 0 0 0 0 0 0 0 0 0 0 0 0 0 0 0 0 0 0 0 0 0 0 0 0 0 0 0 0 0 0 0 0 0 0 0 0 0 0 0 0 0 0 0 0 0 0 0 0 0 0 0 0 0 0 0 0 0 0 0 0 0 0 0 0 0 0 0 0 0 0 0 0 0 0 0 0 0 0 0 0 0 0 0 0 0 0 0 0 0 0 0 0 0 0 0 0 0 0 0 0 0 0 0 0 0 0 0 0 0 0 0 0 0 0 0 0 0 0 0 0 0 0 0 0 0 0 0 0 0 0 0 0 0 0 0 0 0 0 0 0 0 0 0 0 0 0 0 0 0 0 0 0 0 0 0 0 0 0 0 0 0 0 0 0 0 0 0 0 0 0 0 0 0 0 0 0 0 0 0 0 0 0 0 0 0 0 0 0 0 0 0 0 0 0 0 0 0 0 0 0 0 0 0 0 0 0 0 0 0 0 0 0 0 0 0 0 0 0 0 0 0 0 0 0 0 0 0 0 0 0 0 0 0 0 0 0 0 0 0 0 0 0 0 0 0 0 0 0 0 0 0 0 0 0 0 0 0 0 0 0 0 0 0 0 0 0 0 0 0 0 0 0 0 0 0 0 0 0 0 0 0 0 0 0 0 0 0 0 0 0 0 0 0 0 0 0 0 0 0 0 0 0 0 0 0 0 0 0 0 0 0 0 0 0 0 0 0 0 0 0 0 0 0 0 0 0 0 0 0 0 0 0 0 0 0 0 0 0 0 0 0 0 0 0 0 0 0 0 0 0 0 0 0 0 0 0 0 0 0 0 0 0 0 0 0 0 0 0 0 0 0 0 0 0 0 0 0 0 0 0 0 0 0 0 0 0 0 0 0 0 0 0 0 0 0 0 0 0 0 0 0 0 0 0 0 0 0 0 0 0 0 0 0 0 0 0 0 0 0 0 0 0 0 0 0 0 0 0 0 0 0 0 0 0 0 0 0 0 0 0 0 0 0 0 0 0 0 0 0 0 0 0 0 0 0 0 0 0 0 0 0 0 0 0 0 0 0 0 0 0 0 0 0 0 0 0 0 0 0 0 0 0 0 0 0 0 0 0 0 0 0 0 0 0 0 0 0 0 0 0 0 0 0 0 0 0 0 0 0 0 0 0 0 0 0 0 0 0 0 0 0 0 0 0 0 0 0 0 0 0 0 0 0 0 0 0 0 0 0 0 0 0 0 0 0 0 0 0 0 0 0 0 0 0 0 0 0 0 0 0 0 0 0 0 0 0 0 0 0 0 0 0 0 0 0 0 0 0 0 0 0 0 0 0 0 0 0 0 0 0 0 0 0 0 0 0 0 0 0 0 0 0 0 0 0 0 0 0 0 0 0 0 0 0 0 0 0 0 0 0 0 0 0 0 0 0 0 0 0 0 0 0 0 0 0 0 0 0 0 0 0 0 0 0 0 0 0 0 0 0 0 0 0 0 0 0 0 0 0 0 0 0 0 0 0 0 0 0 0 0 0 0 0 0 0 0 0 0 0 0 0 0 0 0 0 0 0 0 0 0 0 0 0 0 0 0 0 0 0 0 0 0 0 0 0 0 0 0 0 0 0 0 0 0 0 0 0 0 0 0 0 0 0 0 0 0 0 0 0 0 0 0 0 0 0 0 0 0 0 0 0 0 0 0 0 0 0 0 0 0 0 0 0 0 0 0 0 0 0 0 0 0 0 0 0 0 0 0 0 0 0 0 0 0 0 0 0 0 0 0 0 0 0 0 0 0 0 0 0 0 0 0 0 0 0 0 0 0 0 0 0 0 0 0 0 0 0 0 0 0 0 0 0 0 0 0 0 0 0 0 0 0 0 0 0 0 0 0 0 0 0 0 0 0 0 0 0 0 0 0 0 0 0 0 0 0 0 0 0 0 0 0 0 0 0 0 0 0 0 0 0 0 0 0 0 0 0 0 0 0 0 0 0 0 0 0 0 0 0 0 0 0 0 0 0 0 0 0 0 0 0 0 0 0 0 0 0 0 0 0 0 0 0 0 0 0 0 0 0 0 0 0 0 0 0 0 0 0 0 0 0 0 0 0 0 0 0 0 0 0 0 0 0 0 0 0 0 0 0 0 0 0 0 0 0 0 0 0 0 0 0 0 0 0 0 0 0 0 0 0 0 0 0 0 0 0 0 0 0 0 0 0 0 0 0 0 0 0 0 0 0 0 0 0 0 0 0 0 0 0 0 0 0 0 0 0 0 0 0 0 0 0 0 0 0 0 0 0 0 0 0 0 0 0 0 0 0 0 0 0 0 0 0 0 0 0 0 0 0 0 0 0 0 0 0 0 0 0 0 0 0 0 0 0 0 0 0 0 0 0 0 0 0 0 0 0 0 0 0 0 0 0 0 0 0 0 0 0 0 0 0 0 0 0 0 0 0 0 0 0 0 0 0 0 0 0 0 0 0 0 0 0 0 0 0 0 0 0 0 0 0 0 0 0 0 0 0 0 0 0 0 0 0 0 0 0 0 0 0 0 0 0 0 0 0 0 0 0 0 0 0 0 0 0 0 0 0 0 0 0 0 0 0 0 0 0 0 0 0 0 0 0 0 0 0 0 0 0 0 0 0 0 0 0 0 0 0 0
        </DataArray>
        <DataArray type="Float32" Name="velocity" NumberOfComponents="3" format="ascii">
 -0.0101902371 -0.0034958363 -1.5117331567 -0.0098198015 -0.0033942144 -1.5109999344 -0.0109022664 -0.0037018586 -1.5114695729 -0.0095183388 -0.0033018572 -1.5119143687 -0.0103641719 -0.0035538468 -1.5104664470 -0.0107573686 -0.0036549291 -1.5123062649 -0.0090843350 -0.0031826180 -1.5110832608 -0.0112899425 -0.0038172256 -1.5108261333 -0.0097311696 -0.0033582307 -1.5126505653 -0.0096638769 -0.0033551563 -1.5101096881 -0.0115090708 -0.0038725895 -1.5120031225 -0.0087358022 -0.0030779095 -1.5118166615 -0.0110039821 -0.0037403428 -1.5100152246 -0.0105435820 -0.0035888222 -1.5130502698 -0.0087926108 -0.0031034110 -1.5103772241 -0.0119391051 -0.0040015554 -1.5111338869 -0.0089981681 -0.0031470172 -1.5127846629 -0.0101222779 -0.0034906164 -1.5094980817 -0.0115567551 -0.0038814280 -1.5127614377 -0.0082239195 -0.0029347602 -1.5112297415 -0.0117659751 -0.0039587134 -1.5100630879 -0.0098972592 -0.0034003360 -1.5135204710 -0.0089680366 -0.0031586998 -1.5096033712 -0.0122954106 -0.0040995065 -1.5118069820 -0.0082601766 -0.0029375101 -1.5124276628 -0.0109077934 -0.0037179632 -1.5091976607 -0.0111699416 -0.0037654469 -1.5135397168 -0.0080371863 -0.0028864760 -1.5103996821 -0.0124317106 -0.0041468642 -1.5105171689 -0.0090232895 -0.0031491411 -1.5135804636 -0.0095546909 -0.0033313153 -1.5089371109 -0.0122995827 -0.0040950447 -1.5126925386 -0.0077013606 -0.0027818199 -1.5116955298 -0.0118148292 -0.0039776991 -1.5092860591 -0.0104032190 -0.0035416426 -1.5141297460 -0.0082254307 -0.0029462903 -1.5094933215 -0.0128536418 -0.0042629969 -1.5112922257 -0.0081350303 -0.0028968518 -1.5131699952 -0.0104727583 -0.0035973316 -1.5085381281 -0.0119121950 -0.0039777932 -1.5136438395 -0.0074348242 -0.0027114739 -1.5107340028 -0.0126334790 -0.0042095386 -1.5097705901 -0.0093758430 -0.0032456002 -1.5143185342 -0.0088166998 -0.0031212987 -1.5086598555 -0.0129480469 -0.0042836977 -1.5122924061 -0.0074223132 -0.0026974956 -1.5123595564 -0.0115563168 -0.0039083183 -1.5085338376 -0.0111223339 -0.0037458469 -1.5144688619 -0.0075250830 -0.0027441135 -1.5096797380 -0.0132082168 -0.0043692395 -1.5105901253 -0.0082926332 -0.0029368943 -1.5139815821 -0.0097917526 -0.0034049429 -1.5080614756 -0.0126614661 -0.0041943089 -1.5134106477 -0.0070026540 -0.0025838765 -1.5112931856 -0.0125803597 -0.0041994411 -1.5089652127 -0.0099948862 -0.0034194407 -1.5149151033 -0.0080205177 -0.0028928244 -1.5086577038 -0.0134566682 -0.0044337048 -1.5116597268 -0.0073719057 -0.0026778956 -1.5131629622 -0.0110233545 -0.0037596551 -1.5078631154 -0.0119508217 -0.0039834621 -1.5144913804 -0.0069349752 -0.0025720245 -1.5101085175 -0.0133589955 -0.0044177122 -1.5097760403 -0.0087195432 -0.0030542648 -1.5147865285 -0.0089512745 -0.0031653107 -1.5078161110 -0.0133320822 -0.0043900540 -1.5128955149 -0.0067537677 -0.0025077700 -1.5120257069 -0.0122740844 -0.0041167255 -1.5081547558 -0.0108146156 -0.0036526369 -1.5152358100 -0.0072653103 -0.0026744475 -1.5089155582 -0.0138002388 -0.0045373407 -1.5108713345 -0.0075546051 -0.0027246034 -1.5140585577 -0.0102504133 -0.0035410475 -1.5073606793 -0.0127833815 -0.0042243291 -1.5141879089 -0.0064941745 -0.0024415277 -1.5107338234 -0.0132983666 -0.0044059096 -1.5089002568 -0.0094193501 -0.0032514800 -1.5153522580 -0.0080516195 -0.0029070140 -1.5078339598 -0.0138697769 -0.0045489978 -1.5121699901 -0.0066980543 -0.0024862172 -1.5128964343 -0.0116850020 -0.0039524091 -1.5074132906 -0.0117390941 -0.0039179603 -1.5152331635 -0.0066231178 -0.0024870539 -1.5094002512 -0.0139662941 -0.0045906694 -1.5099834028 -0.0079972899 -0.0028459165 -1.5149549555 -0.0093445461 -0.0032826606 -1.5071136627 -0.0135300433 -0.0044423753 -1.5135980441 -0.0062202871 -0.0023579052 -1.5115197631 -0.0130070938 -0.0043280507 -1.5080035168 -0.0103009322 -0.0035043246 -1.5153759533 -0.0071941564 -0.0026591384 -1.5081158179 -0.0142490128 -0.0046633742 -1.5113025303 -0.0068506565 -0.0025237518 -1.5138758875 -0.0108174051 -0.0037065198 -1.5069292234 -0.0126930389 -0.0041934053 -1.5149699088 -0.0061324713 -0.0023419578 -1.5100716569 -0.0139431988 -0.0045901102 -1.5090337489 -0.0088000910 -0.0030742380 -1.5152782764 -0.0083778188 -0.0030053163 -1.5071000857 -0.0141347474 -0.0046210437 -1.5127951852 -0.0061227448 -0.0023240176 -1.5124422322 -0.0123649567 -0.0041489595 -1.5071915037 -0.0112289875 -0.0037715180 -1.5152413154 -0.0064627526 -0.0024459435 -1.5086317254 -0.0144604974 -0.0047301896 -1.5103442739 -0.0072655262 -0.0026365032 -1.5148629461 -0.0098986230 -0.0034443166 -1.5066994091 -0.0135678542 -0.0044481962 -1.5143851733 -0.0058068977 -0.0022432553 -1.5108962464 -0.0137086637 -0.0045290866 -1.5080505281 -0.0097306852 -0.0033422835 -1.5151243092 -0.0073599430 -0.0027118170 -1.5073175434 -0.0145750274 -0.0047534114 -1.5118537218 -0.0062150081 -0.0023438321 -1.5134849172 -0.0114018702 -0.0038756569 -1.5067089724 -0.0122194117 -0.0040565548 -1.5151153128 -0.0058960342 -0.0022788070 -1.5093358815 -0.0144971217 -0.0047472025 -1.5093267306 -0.0081688037 -0.0028944679 -1.5150597452 -0.0089581429 -0.0031747789 -1.5066429402 -0.0142707423 -0.0046554223 -1.5135227000 -0.0056498270 -0.0021920610 -1.5118536616 -0.0130598560 -0.0043486630 -1.5071474475 -0.0106495559 -0.0036068949 -1.5149812330 -0.0064470985 -0.0024466700 -1.5078150532 -0.0148478304 -0.0048382548 -1.5108280478 -0.0065493621 -0.0024327615 -1.5145839633 -0.0104639132 -0.0036081421 -1.5064492458 -0.0133005113 -0.0043679573 -1.5149355178 -0.0055020569 -0.0021602886 -1.5101895091 -0.0143422630 -0.0047095264 -1.5082680886 -0.0091499715 -0.0031770690 -1.5148992014 -0.0079454127 -0.0028834509 -1.5067517033 -0.0147914275 -0.0048113236 -1.5125094186 -0.0056680659 -0.0021903816 -1.5129355310 -0.0120117128 -0.0040513005 -1.5066101961 -0.0115985741 -0.0038799187 -1.5148756350 -0.0057736167 -0.0022487539 -1.5085412194 -0.0149538209 -0.0048755702 -1.5097485617 -0.0074984519 -0.0027034220 -1.5148513875 -0.0095404630 -0.0033438064 -1.5063434990 -0.0142711402 -0.0046503837 -1.5143290376 -0.0052763744 -0.0020892547 -1.5111702866 -0.0137932855 -0.0045585192 -1.5072449628 -0.0100781883 -0.0034442716 -1.5147703678 -0.0068151682 -0.0025570963 -1.5070642621 -0.0151363671 -0.0049173032 -1.5114157566 -0.0058902033 -0.0022465192 -1.5141265817 -0.0110361132 -0.0037733097 -1.5062993552 -0.0126340308 -0.0041776464 -1.5147860142 -0.0052964990 -0.0021062183 -1.5094195059 -0.0148851319 -0.0048630230 -1.5086273307 -0.0085475171 -0.0030053481 -1.5147159228 -0.0085786424 -0.0030675657 -1.5063775846 -0.0149057743 -0.0048393176 -1.5132638704 -0.0052166403 -0.0020650679 -1.5122726295 -0.0126629203 -0.0042382026 -1.5066072559 -0.0110029231 -0.0037102630 -1.5146746971 -0.0057812631 -0.0022563454 -1.5076966486 -0.0153155970 -0.0049760199 -1.5102763362 -0.0067704760 -0.0024958065 -1.5146481548 -0.0101095746 -0.0035084200 -1.5061416101 -0.0138095195 -0.0045158056 -1.5146580325 -0.0049956936 -0.0020135078 -1.5104187294 -0.0145350257 -0.0047698328 -1.5074876313 -0.0095056395 -0.0032810340 -1.5146025794 -0.0075200040 -0.0027625440 -1.5065675605 -0.0153338525 -0.0049696186 -1.5120978618 -0.0053340771 -0.0020909171 -1.5135014658 -0.0116274097 -0.0039434548 -1.5062281521 -0.0119783846 -0.0039906978 -1.5145968949 -0.0051844299 -0.0020793241 -1.5085952373 -0.0153316904 -0.0049881481 -1.5091011873 -0.0079089610 -0.0028231197 -1.5145556507 -0.0091781592 -0.0032413095 -1.5061123959 -0.0148968127 -0.0048314568 -1.5140915263 -0.0048582006 -0.0019669409 -1.5115312187 -0.0133712253 -0.0044409032 -1.5066962135 -0.0104266451 -0.0035459014 -1.5145153373 -0.0063064179 -0.0024117131 -1.5069675984 -0.0155891453 -0.0050505673 -1.5108952990 -0.0059785764 -0.0022700548 -1.5144122743 -0.0106771544 -0.0036721200 -1.5060138932 -0.0130646219 -0.0043029620 -1.5145129843 -0.0048005761 -0.0019626555 -1.5096140100 -0.0151595935 -0.0049465171 -1.5078872803 -0.0089191431 -0.0031136232 -1.5144614681 -0.0081866632 -0.0029561231 -1.5062136752 -0.0154455441 -0.0049967192 -1.5128728642 -0.0048829686 -0.0019661537 -1.5127666790 -0.0122514057 -0.0041225333 -1.5062274625 -0.0113643249 -0.0038154493 -1.5144444642 -0.0051866754 -0.0020855560 -1.5077208907 -0.0156860124 -0.0050862056 -1.5096685392 -0.0072188424 -0.0026260647 -1.5143999366 -0.0097552776 -0.0034081156 -1.5059269771 -0.0143219451 -0.0046647166 -1.5143677076 -0.0045856129 -0.0018938041 -1.5107346508 -0.0141511422 -0.0046635103 -1.5068860572 -0.0098569084 -0.0033832390 -1.5143838174 -0.0070734609 -0.0026349833 -1.5064755414 -0.0157819424 -0.0051014010 -1.5115987227 -0.0051886429 -0.0020457797 -1.5140336257 -0.0112556584 -0.0038385583 -1.5059482683 -0.0123746954 -0.0041058518 -1.5143745602 -0.0046857769 -0.0019351590 -1.5087614043 -0.0156227519 -0.0050761006 -1.5084089315 -0.0083051837 -0.0029382455 -1.5143337556 -0.0088077977 -0.0031360171 -1.5059568735 -0.0154550834 -0.0049939854 -1.5137290579 -0.0045257279 -0.0018687500 -1.5119659335 -0.0129229949 -0.0043148160 -1.5062978327 -0.0107781192 -0.0036480208 -1.5143191741 -0.0057780711 -0.0022600791 -1.5069690401 -0.0159563079 -0.0051596382 -1.5103158797 -0.0064613042 -0.0024097634 -1.5142283129 -0.0103228890 -0.0035717906 -1.5058045893 -0.0135209809 -0.0044354392 -1.5142764718 -0.0043908754 -0.0018432825 -1.5098952575 -0.0150028306 -0.0049059271 -1.5071990969 -0.0092810184 -0.0032187007 -1.5142695150 -0.0077775287 -0.0028393269 -1.5061171063 -0.0158997191 -0.0051301605 -1.5123874118 -0.0046307519 -0.0018901794 -1.5133289597 -0.0118581417 -0.0040115129 -1.5059397805 -0.0117367040 -0.0039235051 -1.5142581540 -0.0046609395 -0.0019337944 -1.5078595499 -0.0159808071 -0.0051749799 -1.5090153428 -0.0076491230 -0.0027507796 -1.5142069742 -0.0093977514 -0.0033064951 -1.5057732698 -0.0148620652 -0.0048215563 -1.5140803618 -0.0042523567 -0.0017956886 -1.5111223908 -0.0136580298 -0.0045247983 -1.5064477064 -0.0102062732 -0.0034845952 -1.5142123641 -0.0065999634 -0.0024992532 -1.5064514247 -0.0161515045 -0.0052110439 -1.5110375434 -0.0056240279 -0.0021708613 -1.5140124990 -0.0108935135 -0.0037359889 -1.5057356239 -0.0127911283 -0.0042265865 -1.5141825620 -0.0042676253 -0.0018135314 -1.5090159385 -0.0157871730 -0.0051279405 -1.5076805829 -0.0086859866 -0.0030486162 -1.5141634988 -0.0084258173 -0.0030270517 -1.5058543400 -0.0159389628 -0.0051358177 -1.5132644888 -0.0042609359 -0.0017895490 -1.5124684080 -0.0124987403 -0.0041950352 -1.5059893056 -0.0111353684 -0.0037515706 -1.5141585395 -0.0052205026 -0.0020995489 -1.5070503116 -0.0162547229 -0.0052492692 -1.5096911963 -0.0069352003 -0.0025467944 -1.5140667489 -0.0099701132 -0.0034715536 -1.5056477131 -0.0140070923 -0.0045763666 -1.5140537368 -0.0040529206 -0.0017440483 -1.5102470378 -0.0144711474 -0.0047565717 -1.5066941494 -0.0096359911 -0.0033215449 -1.5141170587 -0.0073472148 -0.0027161227 -1.5060721813 -0.0162788564 -0.0052424931 -1.5118353366 -0.0047250602 -0.0019149096 -1.5136942582 -0.0114798386 -0.0039043795 -1.5057157186 -0.0121232591 -0.0040354680 -1.5140970576 -0.0042150548 -0.0018043500 -1.5080918621 -0.0162145512 -0.0052465003 -1.5083204625 -0.0080579481 -0.0028690633 -1.5140568710 -0.0090337581 -0.0032027364 -1.5056637295 -0.0154316947 -0.0049869681 -1.5137768273 -0.0039811848 -0.0017149847 -1.5115735397 -0.0131928506 -0.0043935006 -1.5061035547 -0.0105565061 -0.0035860096 -1.5140708032 -0.0060958315 -0.0023543594 -1.5064855701 -0.0164559535 -0.0053022919 -1.5104308058 -0.0061478530 -0.0023219489 -1.5138935081 -0.0105376631 -0.0036349193 -1.5055709776 -0.0132313832 -0.0043540703 -1.5140042200 -0.0039192375 -0.0017114722 -1.5093412753 -0.0153675779 -0.0050114634 -1.5070643264 -0.0090545727 -0.0031552654 -1.5140269667 -0.0080285986 -0.0029134494 -1.5057931048 -0.0163417701 -0.0052549091 -1.5127177485 -0.0040633645 -0.0017292695 -1.5130287174 -0.0120953130 -0.0040808208 -1.5057450318 -0.0115013636 -0.0038574918 -1.5140195746 -0.0046372113 -0.0019311525 -1.5072073755 -0.0164973773 -0.0053231442 -1.5090279880 -0.0073818152 -0.0026757799 -1.5139390496 -0.0096157217 -0.0033706042 -1.5055297720 -0.0145257484 -0.0047266581 -1.5138271796 -0.0037743505 -0.0016614723 -1.5106589113 -0.0139563445 -0.0046113778 -1.5062960355 -0.0099869760 -0.0034230794 -1.5139904751 -0.0068917605 -0.0025854197 -1.5060716928 -0.0165937755 -0.0053366975 -1.5112361523 -0.0052765020 -0.0020733949 -1.5136578356 -0.0111129430 -0.0038002215 -1.5055383278 -0.0125274567 -0.0041524103 -1.5139490452 -0.0038463699 -0.0016965848 -1.5083985947 -0.0162666225 -0.0052660342 -1.5076021108 -0.0084487793 -0.0029819995 -1.5139355111 -0.0086600063 -0.0030959553 -1.5055889281 -0.0160201774 -0.0051580537 -1.5134320780 -0.0037606564 -0.0016484318 -1.5120845894 -0.0127545836 -0.0042694857 -1.5058283339 -0.0109104681 -0.0036883719 -1.5139483644 -0.0055588247 -0.0021996738 -1.5065756395 -0.0167066921 -0.0053783559 -1.5097881020 -0.0066416375 -0.0024642811 -1.5137955330 -0.0101849660 -0.0035345226 -1.5054426244 -0.0136991639 -0.0044894457 -1.5138271002 -0.0036300170 -0.0016260198 -1.5097249711 -0.0148022594 -0.0048522681 -1.5065886678 -0.0094141179 -0.0032591750 -1.5139131352 -0.0076123830 -0.0027941697 -1.5057671710 -0.0166743272 -0.0053541891 -1.5121163919 -0.0043333215 -0.0018049418 -1.5133103623 -0.0117088834 -0.0039711769 -1.5055488741 -0.0118792808 -0.0039667549 -1.5138930477 -0.0040504818 -0.0017612639 -1.5074435369 -0.0166937510 -0.0053839745 -1.5083277088 -0.0078043111 -0.0027976943 -1.5138347108 -0.0092566232 -0.0032681071 -1.5054426260 -0.0150779374 -0.0048866978 -1.5135810812 -0.0035447210 -0.0015925948 -1.5111250129 -0.0134734216 -0.0044748350 -1.5059758409 -0.0103368639 -0.0035241893 -1.5138810534 -0.0064074376 -0.0024461626 -1.5061133668 -0.0168547557 -0.0054156431 -1.5106024563 -0.0058228473 -0.0022305249 -1.5136046264 -0.0107541262 -0.0036981535 -1.5053967009 -0.0129529822 -0.0042754477 -1.5138050420 -0.0035409761 -0.0016066068 -1.5087641662 -0.0157311375 -0.0051161252 -1.5070130579 -0.0088251126 -0.0030906488 -1.5138338939 -0.0082730711 -0.0029852028 -1.5055435357 -0.0165809951 -0.0053217274 -1.5130048034 -0.0035986520 -0.0015983548 -1.5126455903 -0.0123393671 -0.0041517506 -1.5056055608 -0.0112711277 -0.0037925810 -1.5138377144 -0.0049892776 -0.0020352781 -1.5067238759 -0.0169132601 -0.0054419467 -1.5091136513 -0.0071056513 -0.0025979670 -1.5137136278 -0.0098323771 -0.0034339729 -1.5053430755 -0.0141978027 -0.0046337389 -1.5136402547 -0.0033901833 -0.0015544193 -1.5101589260 -0.0142672424 -0.0047011825 -1.5062047594 -0.0097676835 -0.0033612697 -1.5138147732 -0.0071732960 -0.0026681167 -1.5057740464 -0.0169498808 -0.0054373346 -1.5114799392 -0.0049191079 -0.0019729075 -1.5133327560 -0.0113358320 -0.0038651344 -1.5053899440 -0.0122725138 -0.0040803781 -1.5137720377 -0.0035488420 -0.0016152358 -1.5077671073 -0.0166760128 -0.0053834584 -1.5076118988 -0.0082063758 -0.0029136413 -1.5137466740 -0.0088896610 -0.0031631884 -1.5053812861 -0.0156611795 -0.0050558761 -1.5132994557 -0.0033553689 -0.0015349424 -1.5116433162 -0.0130195342 -0.0043462405 -1.5057157671 -0.0106885514 -0.0036257446 -1.5137827630 -0.0058912327 -0.0022974791 -1.5061983639 -0.0170710221 -0.0054819326 -1.5099412389 -0.0063369504 -0.0023783728 -1.5135559986 -0.0104002338 -0.0035973169 -1.5052835124 -0.0134036284 -0.0044057188 -1.5136571998 -0.0032876067 -0.0015312509 -1.5091779233 -0.0151461027 -0.0049512476 -1.5065411927 -0.0091902926 -0.0031960097 -1.5137459979 -0.0078693528 -0.0028694634 -1.5055248350 -0.0169857070 -0.0054415429 -1.5124302754 -0.0039511769 -0.0016977188 -1.5129278028 -0.0119433271 -0.0040392577 -1.5054236482 -0.0116415991 -0.0038995656 -1.5137333531 -0.0043922334 -0.0018625854 -1.5069356319 -0.0170831961 -0.0054952285 -1.5084073401 -0.0075431319 -0.0027239655 -1.5136431326 -0.0094768726 -0.0033324338 -1.5052674349 -0.0147295564 -0.0047876684 -1.5134326016 -0.0031911390 -0.001494