<?xml version="1.0"?>
<VTKFile type="UnstructuredGrid" version="0.1" byte_order="LittleEndian">
  <UnstructuredGrid>
    <FieldData>
      <DataArray type="Float32" Name="TIME"  NumberOfTuples="1" format="ascii"> 0.2000000000 </DataArray>
      <DataArray type="Int32"   Name="STEP"  NumberOfTuples="1" format="ascii"> 20000 </DataArray>
    </FieldData>
    <Piece NumberOfPoints="90" NumberOfCells="90">
      <Points>
        <DataArray type="Float32" NumberOfComponents="3" format="ascii">
 0.0229953619 0.2093712351 -1.0006029146 -0.0441941322 0.2037715293 -1.0010935378 0.0647087120 0.2005053191 -1.0013689448 -0.0026440461 0.1941087324 -1.0019075873 -0.0701798450 0.1889677971 -1.0022618380 0.0390509440 0.1849592618 -1.0026405509 -0.0284451432 0.1790890240 -1.0030915195 0.0808138670 0.1756650705 -1.0019277883 0.0133060306 0.1696871213 -1.0037825461 -0.0544372820 0.1642648696 -1.0041586793 0.0552577293 0.1607176170 -1.0043962259 -0.0125530870 0.1546449302 -1.0048084773 -0.0800758651 0.1485216522 -1.0021832589 0.0293933320 0.1454488355 -1.0053876809 -0.0385567398 0.1397864485 -1.0057261823 0.0712316449 0.1359031121 -1.0037816219 0.0034612143 0.1303940203 -1.0062577180 -0.0644754350 0.1245585307 -1.0048742302 0.0455964080 0.1213383370 -1.0067027902 -0.0225681802 0.1155098909 -1.0070230082 0.0867188760 0.1108579366 -1.0008585047 -0.0895820721 0.1085571192 -1.0002512505 0.0195790915 0.1062906159 -1.0074499551 -0.0486453734 0.1005790545 -1.0069916832 0.0615333113 0.0967457147 -1.0053226905 -0.0064914981 0.0913918231 -1.0080641133 -0.0741483552 0.0850283854 -1.0032824142 0.0357694108 0.0822563430 -1.0082307043 -0.0326365097 0.0765835033 -1.0084739092 0.0771802852 0.0723148358 -1.0027336798 0.0096557400 0.0673867040 -1.0088575639 -0.0584545429 0.0613929167 -1.0057618925 0.0517499266 0.0579963401 -1.0066386122 -0.0165075991 0.0525823234 -1.0092266011 -0.0837206878 0.0462707757 -1.0014724445 0.0258326210 0.0434074427 -1.0090150825 -0.0425516008 0.0376597099 -1.0076655427 0.0675386467 0.0339768383 -1.0044000483 -0.0003322083 0.0286404773 -1.0096306456 -0.0681818699 0.0227734188 -1.0042960340 0.0418952489 0.0194382132 -1.0077310503 -0.0264941096 0.0138425706 -1.0089743806 0.0830883381 0.0102238156 -1.0015989982 0.0158542239 0.0047287404 -1.0095051072 -0.0524019472 -0.0009075282 -1.0065581481 0.0578056272 -0.0043677853 -1.0058514719 -0.0103393897 -0.0100412990 -1.0096751244 -0.0778170223 -0.0154879955 -1.0026156170 0.0319823653 -0.0191365356 -1.0085959250 -0.0364333607 -0.0247583380 -1.0082365414 0.0735090496 -0.0279947571 -1.0033951811 0.0058506767 -0.0339565084 -1.0095615661 -0.0621801652 -0.0393114715 -1.0052276858 0.0479934867 -0.0429249403 -1.0070825086 -0.0203299446 -0.0487578595 -1.0092755535 0.0889543867 -0.0514301694 -1.0003861221 -0.0873483759 -0.0535981251 -1.0007268277 0.0220175945 -0.0579137123 -1.0090953841 -0.0463217910 -0.0633926561 -1.0072691801 0.0638310959 -0.0666201466 -1.0049801362 -0.0041447228 -0.0727123811 -1.0087023678 -0.0718736963 -0.0777580569 -1.0036791859 0.0381131011 -0.0818981804 -1.0080677755 -0.0302578048 -0.0876074524 -1.0082020797 0.0794417532 -0.0902096391 -1.0023096188 0.0119846207 -0.0967426453 -1.0078543090 -0.0561458659 -0.1022687852 -1.0060743111 0.0540654884 -0.1058650876 -1.0063412136 -0.0140781612 -0.1116315356 -1.0072070058 -0.0814705329 -0.1164602270 -1.0019183836 0.0280399029 -0.1208981212 -1.0067568384 -0.0400771804 -0.1266788517 -1.0064564034 0.0698227291 -0.1298140478 -1.0040218537 0.0020118133 -0.1357688074 -1.0059582238 -0.0658835415 -0.1415879769 -1.0046001775 0.0440030826 -0.1452240618 -1.0054007558 -0.0239052381 -0.1508109623 -1.0050543826 0.0853334010 -0.1537416780 -1.0011417077 0.0179944412 -0.1600658338 -1.0044500313 -0.0497419911 -0.1660711628 -1.0040374371 0.0598519565 -0.1697589276 -1.0037593580 -0.0078560146 -0.1750921056 -1.0033900021 -0.0754503446 -0.1814121426 -1.0024852726 0.0338505212 -0.1845681623 -1.0026710844 -0.0335785927 -0.1903491016 -1.0022132298 0.0755443499 -0.1944978220 -1.0017220678 0.0080518817 -0.1995688275 -1.0014526824 -0.0592008900 -0.2058823764 -1.0009097844 0.0495585491 -0.2093208434 -1.0006074067 -0.0175714840 -0.2148133018 -1.0001127787
        </DataArray>
      </Points>
      <Cells>
        <DataArray type="Int32" Name="connectivity" format="ascii">
 0 1 2 3 4 5 6 7 8 9 10 11 12 13 14 15 16 17 18 19 20 21 22 23 24 25 26 27 28 29 30 31 32 33 34 35 36 37 38 39 40 41 42 43 44 45 46 47 48 49 50 51 52 53 54 55 56 57 58 59 60 61 62 63 64 65 66 67 68 69 70 71 72 73 74 75 76 77 78 79 80 81 82 83 84 85 86 87 88 89
        </DataArray>
        <DataArray type="Int32" Name="offsets" format="ascii">
 1 2 3 4 5 6 7 8 9 10 11 12 13 14 15 16 17 18 19 20 21 22 23 24 25 26 27 28 29 30 31 32 33 34 35 36 37 38 39 40 41 42 43 44 45 46 47 48 49 50 51 52 53 54 55 56 57 58 59 60 61 62 63 64 65 66 67 68 69 70 71 72 73 74 75 76 77 78 79 80 81 82 83 84 85 86 87 88 89 90
        </DataArray>
        <DataArray type="UInt8" Name="types" format="ascii">
 1 1 1 1 1 1 1 1 1 1 1 1 1 1 1 1 1 1 1 1 1 1 1 1 1 1 1 1 1 1 1 1 1 1 1 1 1 1 1 1 1 1 1 1 1 1 1 1 1 1 1 1 1 1 1 1 1 1 1 1 1 1 1 1 1 1 1 1 1 1 1 1 1 1 1 1 1 1 1 1 1 1 1 1 1 1 1 1 1 1
        </DataArray>
      </Cells>
      <PointData Scalars="overlap">
        <DataArray type="Float32" Name="overlap" format="ascii">
 0.0012058291 0.0021870757 0.0027378895 0.0038151747 0.0045236760 0.0052811019 0.0061830391 0.0038555767 0.0075650921 0.0083173586 0.0087924517 0.0096169547 0.0043665178 0.0107753618 0.0114523646 0.0075632438 0.0125154360 0.0097484604 0.0134055804 0.0140460163 0.0017170093 0.0005025011 0.0148999102 0.0139833664 0.0106453810 0.0161282267 0.0065648283 0.0164614086 0.0169478184 0.0054673597 0.0177151278 0.0115237850 0.0132772244 0.0184532023 0.0029448891 0.0180301650 0.0153310855 0.0088000967 0.0192612912 0.0085920679 0.0154621005 0.0179487612 0.0031979965 0.0190102144 0.0131162963 0.0117029437 0.0193502489 0.0052312340 0.0171918500 0.0164730829 0.0067903622 0.0191231322 0.0104553715 0.0141650172 0.0185511070 0.0007722442 0.0014536554 0.0181907682 0.0145383601 0.0099602723 0.0174047356 0.0073583717 0.0161355510 0.0164041593 0.0046192376 0.0157086180 0.0121486222 0.0126824271 0.0144140116 0.0038367671 0.0135136768 0.0129128067 0.0080437074 0.0119164476 0.0092003550 0.0108015115 0.0101087651 0.0022834153 0.0089000626 0.0080748742 0.0075187159 0.0067800041 0.0049705452 0.0053421689 0.0044264596 0.0034441356 0.0029053649 0.0018195687 0.0012148134 0.0002255575
        </DataArray>
        <DataArray type="Float32" Name="contact normal" NumberOfComponents="3" format="ascii">
 0.0000000000 0.0000000000 1.0000000000 0.0000000000 0.0000000000 1.0000000000 0.0000000000 0.0000000000 1.0000000000 0.0000000000 0.0000000000 1.0000000000 0.0000000000 0.0000000000 1.0000000000 0.0000000000 0.0000000000 1.0000000000 0.0000000000 0.0000000000 1.0000000000 0.0000000000 0.0000000000 1.0000000000 0.0000000000 0.0000000000 1.0000000000 0.0000000000 0.0000000000 1.0000000000 0.0000000000 0.0000000000 1.0000000000 0.0000000000 0.0000000000 1.0000000000 0.0000000000 0.0000000000 1.0000000000 0.0000000000 0.0000000000 1.0000000000 0.0000000000 0.0000000000 1.0000000000 0.0000000000 0.0000000000 1.0000000000 0.0000000000 0.0000000000 1.0000000000 0.0000000000 0.0000000000 1.0000000000 0.0000000000 0.0000000000 1.0000000000 0.0000000000 0.0000000000 1.0000000000 0.0000000000 0.0000000000 1.0000000000 0.0000000000 0.0000000000 1.0000000000 0.0000000000 0.0000000000 1.0000000000 0.0000000000 0.0000000000 1.0000000000 0.0000000000 0.0000000000 1.0000000000 0.0000000000 0.0000000000 1.0000000000 0.0000000000 0.0000000000 1.0000000000 0.0000000000 0.0000000000 1.0000000000 0.0000000000 0.0000000000 1.0000000000 0.0000000000 0.0000000000 1.0000000000 0.0000000000 0.0000000000 1.0000000000 0.0000000000 0.0000000000 1.0000000000 0.0000000000 0.0000000000 1.0000000000 0.0000000000 0.0000000000 1.0000000000 0.0000000000 0.0000000000 1.0000000000 0.0000000000 0.0000000000 1.0000000000 0.0000000000 0.0000000000 1.0000000000 0.0000000000 0.0000000000 1.0000000000 0.0000000000 0.0000000000 1.0000000000 0.0000000000 0.0000000000 1.0000000000 0.0000000000 0.0000000000 1.0000000000 0.0000000000 0.0000000000 1.0000000000 0.0000000000 0.0000000000 1.0000000000 0.0000000000 0.0000000000 1.0000000000 0.0000000000 0.0000000000 1.0000000000 0.0000000000 0.0000000000 1.0000000000 0.0000000000 0.0000000000 1.0000000000 0.0000000000 0.0000000000 1.0000000000 0.0000000000 0.0000000000 1.0000000000 0.0000000000 0.0000000000 1.0000000000 0.0000000000 0.0000000000 1.0000000000 0.0000000000 0.0000000000 1.0000000000 0.0000000000 0.0000000000 1.0000000000 0.0000000000 0.0000000000 1.0000000000 0.0000000000 0.0000000000 1.0000000000 0.0000000000 0.0000000000 1.0000000000 0.0000000000 0.0000000000 1.0000000000 0.0000000000 0.0000000000 1.0000000000 0.0000000000 0.0000000000 1.0000000000 0.0000000000 0.0000000000 1.0000000000 0.0000000000 0.0000000000 1.0000000000 0.0000000000 0.0000000000 1.0000000000 0.0000000000 0.0000000000 1.0000000000 0.0000000000 0.0000000000 1.0000000000 0.0000000000 0.0000000000 1.0000000000 0.0000000000 0.0000000000 1.0000000000 0.0000000000 0.0000000000 1.0000000000 0.0000000000 0.0000000000 1.0000000000 0.0000000000 0.0000000000 1.0000000000 0.0000000000 0.0000000000 1.0000000000 0.0000000000 0.0000000000 1.0000000000 0.0000000000 0.0000000000 1.0000000000 0.0000000000 0.0000000000 1.0000000000 0.0000000000 0.0000000000 1.0000000000 0.0000000000 0.0000000000 1.0000000000 0.0000000000 0.0000000000 1.0000000000 0.0000000000 0.0000000000 1.0000000000 0.0000000000 0.0000000000 1.0000000000 0.0000000000 0.0000000000 1.0000000000 0.0000000000 0.0000000000 1.0000000000 0.0000000000 0.0000000000 1.0000000000 0.0000000000 0.0000000000 1.0000000000 0.0000000000 0.0000000000 1.0000000000 0.0000000000 0.0000000000 1.0000000000 0.0000000000 0.0000000000 1.0000000000 0.0000000000 0.0000000000 1.0000000000 0.0000000000 0.0000000000 1.0000000000 0.0000000000 0.0000000000 1.0000000000 0.0000000000 0.0000000000 1.0000000000 0.0000000000 0.0000000000 1.0000000000
        </DataArray>
        <DataArray type="Float32" Name="contact force" NumberOfComponents="3" format="ascii">
 0.0261595888 0.0083495467 723.4974736506 0.0489007590 0.0140386632 1312.2454122938 0.0553859633 0.0168154544 1642.7337108415 0.0556836130 0.0193300998 2289.1048138109 0.0523926998 0.0176549164 2714.2055869004 0.0508682548 0.0135074135 3168.6611118672 0.0503781414 0.0066983167 3709.8234392230 0.0554960929 0.0193240935 2313.3460103666 0.0492026646 -0.0061597816 4539.0552699621 0.0463492647 -0.0117532018 4990.4151480450 0.0441050075 -0.0147737825 5275.4710408636 0.0401216939 -0.0195012299 5770.1728019753 0.0529920071 0.0182672929 2619.9106925853 0.0359437060 -0.0254620300 6465.2170794632 0.0336768930 -0.0286266994 6871.4187657529 0.0492026333 -0.0061597294 4537.9462908642 0.0312637534 -0.0326297998 7509.2616111931 0.0396151662 -0.0201677864 5849.0762368869 0.0301125436 -0.0334528136 8043.3482445725 0.0292914868 -0.0333137613 8427.6097860479 0.0397331022 0.0112303122 1030.2055802686 0.0039878715 0.0048036704 301.5006585378 0.0288659583 -0.0329395454 8939.9461350804 0.0293519337 -0.0333282109 8390.0198346019 0.0364257070 -0.0247788826 6387.2286206404 0.0292276905 -0.0322055301 9676.9360045015 0.0502847647 0.0031035326 3938.8969958474 0.0293065572 -0.0319014971 9876.8451402775 0.0294781582 -0.0314357826 10168.6910441423 0.0507528903 0.0123464651 3280.4157936369 0.0297745886 -0.0309083915 10629.0766904630 0.0334575678 -0.0289689472 6914.2710174820 0.0302690003 -0.0334442348 7966.3346670706 0.0298813160 -0.0307472187 11071.9213568430 0.0565747750 0.0175902944 1766.9334417922 0.0298428306 -0.0307978188 10818.0990043830 0.0289616296 -0.0327156162 9198.6512856111 0.0440208904 -0.0148791961 5280.0579998454 0.0299322139 -0.0307569593 11556.7747062525 0.0450866646 -0.0134965062 5155.2407533990 0.0290100381 -0.0326513378 9277.2603130114 0.0298263945 -0.0308222845 10769.2566993251 0.0571998674 0.0183581775 1918.7978964019 0.0299231899 -0.0307512339 11406.1286459219 0.0304614358 -0.0333995727 7869.7777657279 0.0329481467 -0.0298119342 7021.7662296151 0.0299338207 -0.0307589192 11610.1493381765 0.0509146732 0.0138733075 3138.7404006709 0.0295835183 -0.0312481707 10315.1099909048 0.0293114396 -0.0318835616 9883.8497394473 0.0502216692 0.0007522340 4074.2173273611 0.0299287867 -0.0307540656 11473.8793484852 0.0370127141 -0.0239240238 6273.2229096727 0.0291814255 -0.0332863621 8499.0103494185 0.0298874266 -0.0307452863 11130.6641956035 0.0125064929 0.0062007004 463.3465474643 0.0330683117 0.0096766729 872.1932204921 0.0298640078 -0.0307685798 10914.4609418575 0.0289161338 -0.0331497702 8723.0160676270 0.0388031621 -0.0213145390 5976.1633980845 0.0296725395 -0.0310937350 10442.8413530591 0.0496271042 -0.0044878289 4415.0230347796 0.0292321284 -0.0321894254 9681.3305817283 0.0292924747 -0.0319546491 9842.4955979864 0.0520659073 0.0172055819 2771.5425328511 0.0291060003 -0.0325091094 9425.1708274632 0.0318843046 -0.0316300493 7289.1733442460 0.0310267483 -0.0329514482 7609.4562765420 0.0289803336 -0.0332073346 8648.4069868766 0.0555592914 0.0193272504 2302.0602810921 0.0299705647 -0.0334467010 8108.2060862763 0.0307069819 -0.0332650800 7747.6840322831 0.0475375850 -0.0099186439 4826.2244690820 0.0323981006 -0.0307554614 7149.8685430991 0.0420421274 -0.0172214533 5520.2130199805 0.0358826807 -0.0255477270 6480.9069280913 0.0382249169 -0.0221548192 6065.2590661687 0.0503909548 0.0145818076 1370.0491886627 0.0435961670 -0.0154040104 5340.0375404936 0.0473960177 -0.0101570818 4844.9244921208 0.0493240080 -0.0057477576 4511.2295494794 0.0502282913 0.0009082443 4068.0024662399 0.0512130323 0.0153272834 2982.3271477816 0.0508276646 0.0131309427 3205.3013116814 0.0527622180 0.0180584731 2655.8757751955 0.0570323860 0.0189080529 2066.4813552593 0.0563633320 0.0174277011 1743.2189205274 0.0419029350 0.0118119407 1091.7412375667 0.0264002124 0.0083917757 728.8880329650 -0.0021124864 0.0028418557 135.3344914293
        </DataArray>
        <DataArray type="Float32" Name="contact torque" NumberOfComponents="3" format="ascii">
 0.0000000000 0.0000000000 0.0000000000 0.0000000000 0.0000000000 0.0000000000 0.0000000000 0.0000000000 0.0000000000 0.0000000000 0.0000000000 0.0000000000 0.0000000000 0.0000000000 0.0000000000 0.0000000000 0.0000000000 0.0000000000 0.0000000000 0.0000000000 0.0000000000 0.0000000000 0.0000000000 0.0000000000 0.0000000000 0.0000000000 0.0000000000 0.0000000000 0.0000000000 0.0000000000 0.0000000000 0.0000000000 0.0000000000 0.0000000000 0.0000000000 0.0000000000 0.0000000000 0.0000000000 0.0000000000 0.0000000000 0.0000000000 0.0000000000 0.0000000000 0.0000000000 0.0000000000 0.0000000000 0.0000000000 0.0000000000 0.0000000000 0.0000000000 0.0000000000 0.0000000000 0.0000000000 0.0000000000 0.0000000000 0.0000000000 0.0000000000 0.0000000000 0.0000000000 0.0000000000 0.0000000000 0.0000000000 0.0000000000 0.0000000000 0.0000000000 0.0000000000 0.0000000000 0.0000000000 0.0000000000 0.0000000000 0.0000000000 0.0000000000 0.0000000000 0.0000000000 0.0000000000 0.0000000000 0.0000000000 0.0000000000 0.0000000000 0.0000000000 0.0000000000 0.0000000000 0.0000000000 0.0000000000 0.0000000000 0.0000000000 0.0000000000 0.0000000000 0.0000000000 0.0000000000 0.0000000000 0.0000000000 0.0000000000 0.0000000000 0.0000000000 0.0000000000 0.0000000000 0.0000000000 0.0000000000 0.0000000000 0.0000000000 0.0000000000 0.0000000000 0.0000000000 0.0000000000 0.0000000000 0.0000000000 0.0000000000 0.0000000000 0.0000000000 0.0000000000 0.0000000000 0.0000000000 0.0000000000 0.0000000000 0.0000000000 0.0000000000 0.0000000000 0.0000000000 0.0000000000 0.0000000000 0.0000000000 0.0000000000 0.0000000000 0.0000000000 0.0000000000 0.0000000000 0.0000000000 0.0000000000 0.0000000000 0.0000000000 0.0000000000 0.0000000000 0.0000000000 0.0000000000 0.0000000000 0.0000000000 0.0000000000 0.0000000000 0.0000000000 0.0000000000 0.0000000000 0.0000000000 0.0000000000 0.0000000000 0.0000000000 0.0000000000 0.0000000000 0.0000000000 0.0000000000 0.0000000000 0.0000000000 0.0000000000 0.0000000000 0.0000000000 0.0000000000 0.0000000000 0.0000000000 0.0000000000 0.0000000000 0.0000000000 0.0000000000 0.0000000000 0.0000000000 0.0000000000 0.0000000000 0.0000000000 0.0000000000 0.0000000000 0.0000000000 0.0000000000 0.0000000000 0.0000000000 0.0000000000 0.0000000000 0.0000000000 0.0000000000 0.0000000000 0.0000000000 0.0000000000 0.0000000000 0.0000000000 0.0000000000 0.0000000000 0.0000000000 0.0000000000 0.0000000000 0.0000000000 0.0000000000 0.0000000000 0.0000000000 0.0000000000 0.0000000000 0.0000000000 0.0000000000 0.0000000000 0.0000000000 0.0000000000 0.0000000000 0.0000000000 0.0000000000 0.0000000000 0.0000000000 0.0000000000 0.0000000000 0.0000000000 0.0000000000 0.0000000000 0.0000000000 0.0000000000 0.0000000000 0.0000000000 0.0000000000 0.0000000000 0.0000000000 0.0000000000 0.0000000000 0.0000000000 0.0000000000 0.0000000000 0.0000000000 0.0000000000 0.0000000000 0.0000000000 0.0000000000 0.0000000000 0.0000000000 0.0000000000 0.0000000000 0.0000000000 0.0000000000 0.0000000000 0.0000000000 0.0000000000 0.0000000000 0.0000000000 0.0000000000 0.0000000000 0.0000000000 0.0000000000 0.0000000000 0.0000000000 0.0000000000 0.0000000000 0.0000000000 0.0000000000 0.0000000000 0.0000000000 0.0000000000 0.0000000000 0.0000000000 0.0000000000 0.0000000000 0.0000000000 0.0000000000 0.0000000000 0.0000000000 0.0000000000 0.0000000000 0.0000000000 0.0000000000 0.0000000000 0.0000000000 0.0000000000 0.0000000000 0.0000000000 0.0000000000 0.0000000000 0.0000000000 0.0000000000
        </DataArray>
        <DataArray type="Float32" Name="sliding spring" NumberOfComponents="3" format="ascii">
 -0.0000001453 -0.0000000464 0.0000000000 -0.0000002717 -0.0000000780 0.0000000000 -0.0000003077 -0.0000000934 0.0000000000 -0.0000003094 -0.0000001074 0.0000000000 -0.0000002911 -0.0000000981 0.0000000000 -0.0000002826 -0.0000000750 0.0000000000 -0.0000002799 -0.0000000372 0.0000000000 -0.0000003083 -0.0000001074 0.0000000000 -0.0000002733 0.0000000342 0.0000000000 -0.0000002575 0.0000000653 0.0000000000 -0.0000002450 0.0000000821 0.0000000000 -0.0000002229 0.0000001083 0.0000000000 -0.0000002944 -0.0000001015 0.0000000000 -0.0000001997 0.0000001415 0.0000000000 -0.0000001871 0.0000001590 0.0000000000 -0.0000002733 0.0000000342 0.0000000000 -0.0000001737 0.0000001813 0.0000000000 -0.0000002201 0.0000001120 0.0000000000 -0.0000001673 0.0000001858 0.0000000000 -0.0000001627 0.0000001851 0.0000000000 -0.0000002207 -0.0000000624 0.0000000000 -0.0000000222 -0.0000000267 0.0000000000 -0.0000001604 0.0000001830 0.0000000000 -0.0000001631 0.0000001852 0.0000000000 -0.0000002024 0.0000001377 0.0000000000 -0.0000001624 0.0000001789 0.0000000000 -0.0000002794 -0.0000000172 0.0000000000 -0.0000001628 0.0000001772 0.0000000000 -0.0000001638 0.0000001746 0.0000000000 -0.0000002820 -0.0000000686 0.0000000000 -0.0000001654 0.0000001717 0.0000000000 -0.0000001859 0.0000001609 0.0000000000 -0.0000001682 0.0000001858 0.0000000000 -0.0000001660 0.0000001708 0.0000000000 -0.0000003143 -0.0000000977 0.0000000000 -0.0000001658 0.0000001711 0.0000000000 -0.0000001609 0.0000001818 0.0000000000 -0.0000002446 0.0000000827 0.0000000000 -0.0000001663 0.0000001709 0.0000000000 -0.0000002505 0.0000000750 0.0000000000 -0.0000001612 0.0000001814 0.0000000000 -0.0000001657 0.0000001712 0.0000000000 -0.0000003178 -0.0000001020 0.0000000000 -0.0000001662 0.0000001708 0.0000000000 -0.0000001692 0.0000001856 0.0000000000 -0.0000001830 0.0000001656 0.0000000000 -0.0000001663 0.0000001709 0.0000000000 -0.0000002829 -0.0000000771 0.0000000000 -0.0000001644 0.0000001736 0.0000000000 -0.0000001628 0.0000001771 0.0000000000 -0.0000002790 -0.0000000042 0.0000000000 -0.0000001663 0.0000001709 0.0000000000 -0.0000002056 0.0000001329 0.0000000000 -0.0000001621 0.0000001849 0.0000000000 -0.0000001660 0.0000001708 0.0000000000 -0.0000000695 -0.0000000344 0.0000000000 -0.0000001837 -0.0000000538 0.0000000000 -0.0000001659 0.0000001709 0.0000000000 -0.0000001606 0.0000001842 0.0000000000 -0.0000002156 0.0000001184 0.0000000000 -0.0000001648 0.0000001727 0.0000000000 -0.0000002757 0.0000000249 0.0000000000 -0.0000001624 0.0000001788 0.0000000000 -0.0000001627 0.0000001775 0.0000000000 -0.0000002893 -0.0000000956 0.0000000000 -0.0000001617 0.0000001806 0.0000000000 -0.0000001771 0.0000001757 0.0000000000 -0.0000001724 0.0000001831 0.0000000000 -0.0000001610 0.0000001845 0.0000000000 -0.0000003087 -0.0000001074 0.0000000000 -0.0000001665 0.0000001858 0.0000000000 -0.0000001706 0.0000001848 0.0000000000 -0.0000002641 0.0000000551 0.0000000000 -0.0000001800 0.0000001709 0.0000000000 -0.0000002336 0.0000000957 0.0000000000 -0.0000001993 0.0000001419 0.0000000000 -0.0000002124 0.0000001231 0.0000000000 -0.0000002799 -0.0000000810 0.0000000000 -0.0000002422 0.0000000856 0.0000000000 -0.0000002633 0.0000000564 0.0000000000 -0.0000002740 0.0000000319 0.0000000000 -0.0000002790 -0.0000000050 0.0000000000 -0.0000002845 -0.0000000852 0.0000000000 -0.0000002824 -0.0000000729 0.0000000000 -0.0000002931 -0.0000001003 0.0000000000 -0.0000003168 -0.0000001050 0.0000000000 -0.0000003131 -0.0000000968 0.0000000000 -0.0000002328 -0.0000000656 0.0000000000 -0.0000001467 -0.0000000466 0.0000000000 0.0000000117 -0.0000000158 0.0000000000
        </DataArray>
      </PointData>
    </Piece>
  </UnstructuredGrid>
</VTKFile>
