<?xml version="1.0"?>
<VTKFile type="UnstructuredGrid" version="0.1" byte_order="LittleEndian">
  <UnstructuredGrid>
    <FieldData>
      <DataArray type="Float32" Name="TIME"  NumberOfTuples="1" format="ascii"> 0.8000000000 </DataArray>
      <DataArray type="Int32"   Name="STEP"  NumberOfTuples="1" format="ascii"> 80000 </DataArray>
    </FieldData>
    <Piece NumberOfPoints="2004" NumberOfCells="2004">
      <Points>
        <DataArray type="Float32" NumberOfComponents="3" format="ascii">
 0.0283542904 0.9978699372 -0.0076539428 -0.0437837190 0.9967755536 0.0291298963 0.0031019887 0.9944682020 -0.0780582236 0.0473967566 0.9944862002 0.0587536243 -0.0969461293 0.9977185199 -0.0246075055 0.0855439890 0.9957125948 -0.0638840561 -0.0330930681 0.9888008474 0.1018159947 -0.0592381157 0.9896088502 -0.1163102313 0.1196631720 0.9962772683 0.0375642082 -0.1315061093 0.9956976491 0.0447254229 0.0582493106 0.9857617740 -0.1382468049 0.0413805362 0.9823604877 0.1361056637 -0.1405030500 0.9934754647 -0.0878355947 0.1588070182 0.9970442161 -0.0428761844 -0.1013220532 0.9833967905 0.1307805767 -0.0251539172 0.9764339110 -0.1806723530 0.1356059947 0.9875001100 0.1099911804 -0.1927127678 0.9978083822 -0.0004846488 0.1335365141 0.9847755857 -0.1431217930 -0.0128643683 0.9694538514 0.1867769717 -0.1322610836 0.9806795695 -0.1633047054 0.2054110627 0.9972163152 0.0209663244 -0.1788578567 0.9866941997 0.1136029763 0.0442328249 0.9663999093 -0.2161175047 0.1052823051 0.9706628927 0.1829584802 -0.2216605346 0.9945304467 -0.0781501723 0.2087766788 0.9911626700 -0.1049723269 -0.0932672637 0.9636405078 0.2053778313 -0.0822074987 0.9622851657 -0.2293688769 0.2141811011 0.9879953588 0.1073501167 -0.2471900271 0.9946981769 0.0557544452 0.1319100784 0.9661330097 -0.2167090375 0.0382606790 0.9522577460 0.2382664207 -0.2088441505 0.9796578491 -0.1679885652 0.2654740057 0.9975598921 -0.0292038214 -0.1845767961 0.9692479717 0.1869734606 -0.0012049793 0.9468721592 -0.2713606098 0.1797630799 0.9671078203 0.1951669987 -0.2876392697 0.9974234050 -0.0349652858 0.2230417875 0.9767864016 -0.1785101179 -0.0537289808 0.9415622084 0.2647566622 -0.1541539995 0.9554878522 -0.2492223022 0.2856670518 0.9930465703 0.0723595262 -0.2713029135 0.9837072075 0.1287431118 0.0988721688 0.9428400307 -0.2809251508 0.1071306857 0.9413776613 0.2656679684 -0.2847849657 0.9851811336 -0.1422302920 0.3005582401 0.9916581585 -0.1004455503 -0.1590384690 0.9450444794 0.2560612040 -0.0664356930 0.9318897603 -0.3063911517 0.2586720682 0.9717812843 0.1794441650 -0.3342620204 0.9960939225 0.0324879077 0.2064081986 0.9538003062 -0.2527296563 0.0072674530 0.9220937090 0.3072714882 -0.2343946717 0.9575163428 -0.2437935942 0.3435622643 0.9964787181 0.0110252346 -0.2653490745 0.9628194979 0.2073698822 0.0428138667 0.9197091932 -0.3312601957 0.1871777562 0.9394222300 0.2704811884 -0.3529594931 0.9919422905 -0.0893313058 0.3072365053 0.9755245462 -0.1825087213 -0.1088579300 0.9184334522 0.3141799572 -0.1450208862 0.9249943212 -0.3211876996 0.3354497091 0.9813894042 0.1371138338 -0.3550115033 0.9844530987 0.1156042586 0.1634176370 0.9255304079 -0.3191458849 0.0833946050 0.9095131487 0.3316648868 -0.3173171935 0.9673300006 -0.2132714551 0.3778272518 0.9870101066 -0.0701885836 -0.2313646413 0.9338511774 0.2818397181 -0.0300421597 0.9015609681 -0.3652051329 0.2735427347 0.9470538172 0.2522778673 -0.3990311060 0.9798739977 -0.0128471488 0.2846519322 0.9489866311 -0.2649759839 -0.0400663466 0.8946015305 0.3575074226 -0.2325336930 0.9280995812 -0.3149951748 0.3941054902 0.9714798604 0.0677111472 -0.3466169923 0.9620330111 0.2044529712 0.0996633440 0.8971907660 -0.3723716408 0.1703377142 0.9067379342 0.3369842679 -0.3904496858 0.9670245570 -0.1548519821 0.3835659587 0.9654036064 -0.1617772651 -0.1740298049 0.9016233635 0.3450637082 -0.1152129756 0.8921469140 -0.3815141922 0.3591073527 0.9575547555 0.2083744778 -0.4123220590 0.9417232659 0.0765685342 0.2357606299 0.9154605980 -0.3389334247 0.0424874736 0.8780591561 0.3843379717 -0.3247393751 0.9405077077 -0.2859232691 0.4126952441 0.9142054453 -0.0198673451 -0.3093942100 0.9301316604 0.2890145774 0.0204361501 0.8739616588 -0.4098613008 0.2648074842 0.9150564887 0.3217458326 -0.4189814809 0.9002407881 -0.0693576359 0.3635256921 0.9437711389 -0.2562288560 -0.0989714135 0.8718826184 0.3932750367 -0.2096272177 0.8938090987 -0.3790290100 0.4066197302 0.9028386210 0.1285455710 -0.4063249213 0.9168750407 0.1720429225 0.1661354631 0.8808705903 -0.3988123484 0.1354942802 0.8720216198 0.3937639522 -0.3988961573 0.9194934749 -0.2223737528 0.4120403463 0.8693774123 -0.1119318496 -0.2472927870 0.8921213883 0.3610203294 -0.0703633100 0.8598856048 -0.4306800537 0.3596040331 0.9246601369 0.2805700994 -0.4224849901 0.8339244960 0.0211521900 0.3145246495 0.9122989228 -0.3428513908 -0.0109246443 0.8495613552 0.4251738215 -0.3105695628 0.9068077505 -0.3555486376 0.4156132247 0.8177253471 0.0359763400 -0.3830111757 0.9113626965 0.2726543851 0.0814470017 0.8511163848 -0.4423675101 0.2368060413 0.8783404483 0.3844689299 -0.4181275920 0.8209034410 -0.1276369525 0.4026565438 0.8578954041 -0.2099546270 -0.1669817342 0.8554239219 0.4167058225 -0.1703899338 0.8576578190 -0.4341137135 0.4027787976 0.8413705480 0.1906445911 -0.4186386720 0.8017661809 0.1139920228 0.2406858671 0.8717682603 -0.4124688926 0.0870855717 0.8381799962 0.4404473274 -0.3914994265 0.8780086165 -0.2913707806 0.4160423298 0.7662182651 -0.0552205965 -0.3271091406 0.8887497071 0.3627106542 -0.0142089988 0.8306780031 -0.4692791612 0.3418705740 0.8908277115 0.3512539870 -0.4229363408 0.7488389474 -0.0352610691 0.3801585396 0.8734999528 -0.3167633471 -0.0739940445 0.8259467664 0.4553196868 -0.2782205540 0.8686011593 -0.4185131289 0.4132628533 0.7487581655 0.0930259207 -0.4078456133 0.8024118670 0.2141555621 0.1510420246 0.8344648968 -0.4640117634 0.1935858327 0.8399819791 0.4384382334 -0.4127240396 0.7675659400 -0.1882848168 0.4108623599 0.7471524419 -0.1491999652 -0.2429289035 0.8462373100 0.4289158241 -0.1186833530 0.8225444679 -0.4796000038 0.3933550956 0.8028922980 0.2567528274 -0.4221371765 0.7102995632 0.0558632127 0.3216275978 0.8676675976 -0.4126957377 0.0283377323 0.8076114601 0.4773312838 -0.3747008653 0.8525334130 -0.3641052938 0.4166550297 0.6918284810 0.0008669458 -0.3851078074 0.8317727927 0.3260865719 0.0508411670 0.8063733722 -0.4980946093 0.3072246509 0.8543903948 0.4163178351 -0.4209474043 0.6898090887 -0.0922114122 0.3986329533 0.7580931010 -0.2515414403 -0.1451382290 0.8085865095 0.4756969212 -0.2313138869 0.8285738587 -0.4725423755 0.4083603690 0.7031190597 0.1523668390 -0.4157863406 0.7006445457 0.1509397886 0.2283625107 0.8250116144 -0.4755344733 0.1387449420 0.8029154809 0.4829898086 -0.4040013998 0.7356665913 -0.2529067440 0.4148337290 0.6644994709 -0.0907650569 -0.3250622522 0.8413050939 0.4282968219 -0.0574483702 0.7908193263 -0.5156958721 0.3788016291 0.7840991130 0.3286861096 -0.4232810604 0.6442646356 -0.0008159810 0.3743529316 0.7976961687 -0.3675443060 -0.0386216457 0.7820840052 0.5050839410 -0.3455499927 0.8340441855 -0.4376463177 0.4152392132 0.6393567884 0.0572027849 -0.4019337233 0.7186578745 0.2557393915 0.1234664144 0.7882801652 -0.5178822905 0.2572933013 0.8133200502 0.4711934569 -0.4167496098 0.6501916628 -0.1509424979 0.4072692282 0.6633040556 -0.1872516083 -0.2237453284 0.7984553654 0.4868831282 -0.1734314257 0.7898812388 -0.5170588164 0.4006114387 0.6753562167 0.2153886374 -0.4204490390 0.6250286079 0.0912042863 0.3118118703 0.8195284612 -0.4748485517 0.0750805033 0.7694627175 0.5183818412 -0.3911127129 0.7208847254 -0.3230858439 0.4165770322 0.6039277689 -0.0341137682 -0.3752855581 0.7646100320 0.3760032332 0.0113659016 0.7641830186 -0.5430497895 0.3568273942 0.7799585734 0.4070430138 -0.4224632831 0.5969625516 -0.0572387699 0.3916053124 0.6881424833 -0.2945287181 -0.1126591100 0.7628309713 0.5244232460 -0.2972961578 0.8031893061 -0.4997068314 0.4117367149 0.6033624612 0.1150183118 -0.4115916908 0.6298237232 0.1892953095 0.2032481477 0.7773363381 -0.5291559704 0.1964278394 0.7724673145 0.5157038501 -0.4099366148 0.6257429178 -0.2128254382 0.4127079022 0.5922725842 -0.1269311084 -0.3086225149 0.7928245056 0.4867998881 -0.1073536240 0.7549290103 -0.5524458438 0.3891420647 0.6621675472 0.2836033288 -0.4228251533 0.5689586985 0.0337934350 0.3620084685 0.7402490597 -0.4185434459 0.0044355978 0.7412563650 0.5453258040 -0.3723464113 0.7203435611 -0.4002781138 0.4163547076 0.5597970088 0.0219899484 -0.3939158290 0.6593366200 0.2995515834 0.0867584272 0.7437991260 -0.5623925944 0.3204517535 0.7767866938 0.4852401825 -0.4196294070 0.5640302862 -0.1146627883 0.4024604616 0.6031222723 -0.2267955303 -0.1935048333 0.7507346327 0.5358726255 -0.2339713474 0.7619948179 -0.5458909153 0.4057924447 0.5805159573 0.1756318651 -0.4178793082 0.5627446168 0.1274742324 0.2895486039 0.7717414685 -0.5303066112 0.1279063073 0.7354857184 0.5509665960 -0.3997397159 0.6139613521 -0.2793496638 0.4157420404 0.5389542867 -0.0692582102 -0.3608612206 0.7152429502 0.4279525216 -0.0348734952 0.7253030863 -0.5795027711 0.3725014869 0.6615650703 0.3585708987 -0.4232009386 0.5276526125 -0.0225952229 0.3825524857 0.6378169732 -0.3399468968 -0.0722792156 0.7193802470 0.5646176844 -0.3444451972 0.7303830457 -0.4845271740 0.4141619422 0.5284718952 0.0787807387 -0.4061263669 0.5778004924 0.2294545230 0.1685718455 0.7304890165 -0.5742860898 0.2596242580 0.7462649250 0.5403736911 -0.4144941199 0.5427558044 -0.1743958111 0.4096668095 0.5383669839 -0.1640747548 -0.2810678712 0.7450012332 0.5384733231 -0.1629463197 0.7232647089 -0.5816791936 0.3967480580 0.5688247608 0.2404812624 -0.4216068962 0.5120000061 0.0688273548 0.3455351368 0.6981952314 -0.4721844028 0.0535501195 0.7040198150 0.5779766166 -0.3849048093 0.6133755064 -0.3520944059 0.4167192515 0.4991627887 -0.0129230566 -0.3837332095 0.6158986677 0.3461180775 0.0431561768 0.7020154680 -0.5991051457 0.3483559667 0.6719417435 0.4415053058 -0.4216306332 0.497
[...]
      <PointData Scalars="material ID">
        <DataArray type="Int32" Name="material ID" format="ascii">
 0 0 0 0 0 0 0 0 0 0 0 0 0 0 0 0 0 0 0 0 0 0 0 0 0 0 0 0 0 0 0 0 0 0 0 0 0 0 0 0 0 0 0 0 0 0 0 0 0 0 0 0 0 0 0 0 0 0 0 0 0 0 0 0 0 0 0 0 0 0 0 0 0 0 0 0 0 0 0 0 0 0 0 0 0 0 0 0 0 0 0 0 0 0 0 0 0 0 0 0 0 0 0 0 0 0 0 0 0 0 0 0 0 0 0 0 0 0 0 0 0 0 0 0 0 0 0 0 0 0 0 0 0 0 0 0 0 0 0 0 0 0 0 0 0 0 0 0 0 0 0 0 0 0 0 0 0 0 0 0 0 0 0 0 0 0 0 0 0 0 0 0 0 0 0 0 0 0 0 0 0 0 0 0 0 0 0 0 0 0 0 0 0 0 0 0 0 0 0 0 0 0 0 0 0 0 0 0 0 0 0 0 0 0 0 0 0 0 0 0 0 0 0 0 0 0 0 0 0 0 0 0 0 0 0 0 0 0 0 0 0 0 0 0 0 0 0 0 0 0 0 0 0 0 0 0 0 0 0 0 0 0 0 0 0 0 0 0 0 0 0 0 0 0 0 0 0 0 0 0 0 0 0 0 0 0 0 0 0 0 0 0 0 0 0 0 0 0 0 0 0 0 0 0 0 0 0 0 0 0 0 0 0 0 0 0 0 0 0 0 0 0 0 0 0 0 0 0 0 0 0 0 0 0 0 0 0 0 0 0 0 0 0 0 0 0 0 0 0 0 0 0 0 0 0 0 0 0 0 0 0 0 0 0 0 0 0 0 0 0 0 0 0 0 0 0 0 0 0 0 0 0 0 0 0 0 0 0 0 0 0 0 0 0 0 0 0 0 0 0 0 0 0 0 0 0 0 0 0 0 0 0 0 0 0 0 0 0 0 0 0 0 0 0 0 0 0 0 0 0 0 0 0 0 0 0 0 0 0 0 0 0 0 0 0 0 0 0 0 0 0 0 0 0 0 0 0 0 0 0 0 0 0 0 0 0 0 0 0 0 0 0 0 0 0 0 0 0 0 0 0 0 0 0 0 0 0 0 0 0 0 0 0 0 0 0 0 0 0 0 0 0 0 0 0 0 0 0 0 0 0 0 0 0 0 0 0 0 0 0 0 0 0 0 0 0 0 0 0 0 0 0 0 0 0 0 0 0 0 0 0 0 0 0 0 0 0 0 0 0 0 0 0 0 0 0 0 0 0 0 0 0 0 0 0 0 0 0 0 0 0 0 0 0 0 0 0 0 0 0 0 0 0 0 0 0 0 0 0 0 0 0 0 0 0 0 0 0 0 0 0 0 0 0 0 0 0 0 0 0 0 0 0 0 0 0 0 0 0 0 0 0 0 0 0 0 0 0 0 0 0 0 0 0 0 0 0 0 0 0 0 0 0 0 0 0 0 0 0 0 0 0 0 0 0 0 0 0 0 0 0 0 0 0 0 0 0 0 0 0 0 0 0 0 0 0 0 0 0 0 0 0 0 0 0 0 0 0 0 0 0 0 0 0 0 0 0 0 0 0 0 0 0 0 0 0 0 0 0 0 0 0 0 0 0 0 0 0 0 0 0 0 0 0 0 0 0 0 0 0 0 0 0 0 0 0 0 0 0 0 0 0 0 0 0 0 0 0 0 0 0 0 0 0 0 0 0 0 0 0 0 0 0 0 0 0 0 0 0 0 0 0 0 0 0 0 0 0 0 0 0 0 0 0 0 0 0 0 0 0 0 0 0 0 0 0 0 0 0 0 0 0 0 0 0 0 0 0 0 0 0 0 0 0 0 0 0 0 0 0 0 0 0 0 0 0 0 0 0 0 0 0 0 0 0 0 0 0 0 0 0 0 0 0 0 0 0 0 0 0 0 0 0 0 0 0 0 0 0 0 0 0 0 0 0 0 0 0 0 0 0 0 0 0 0 0 0 0 0 0 0 0 0 0 0 0 0 0 0 0 0 0 0 0 0 0 0 0 0 0 0 0 0 0 0 0 0 0 0 0 0 0 0 0 0 0 0 0 0 0 0 0 0 0 0 0 0 0 0 0 0 0 0 0 0 0 0 0 0 0 0 0 0 0 0 0 0 0 0 0 0 0 0 0 0 0 0 0 0 0 0 0 0 0 0 0 0 0 0 0 0 0 0 0 0 0 0 0 0 0 0 0 0 0 0 0 0 0 0 0 0 0 0 0 0 0 0 0 0 0 0 0 0 0 0 0 0 0 0 0 0 0 0 0 0 0 0 0 0 0 0 0 0 0 0 0 0 0 0 0 0 0 0 0 0 0 0 0 0 0 0 0 0 0 0 0 0 0 0 0 0 0 0 0 0 0 0 0 0 0 0 0 0 0 0 0 0 0 0 0 0 0 0 0 0 0 0 0 0 0 0 0 0 0 0 0 0 0 0 0 0 0 0 0 0 0 0 0 0 0 0 0 0 0 0 0 0 0 0 0 0 0 0 0 0 0 0 0 0 0 0 0 0 0 0 0 0 0 0 0 0 0 0 0 0 0 0 0 0 0 0 0 0 0 0 0 0 0 0 0 0 0 0 0 0 0 0 0 0 0 0 0 0 0 0 0 0 0 0 0 0 0 0 0 0 0 0 0 0 0 0 0 0 0 0 0 0 0 0 0 0 0 0 0 0 0 0 0 0 0 0 0 0 0 0 0 0 0 0 0 0 0 0 0 0 0 0 0 0 0 0 0 0 0 0 0 0 0 0 0 0 0 0 0 0 0 0 0 0 0 0 0 0 0 0 0 0 0 0 0 0 0 0 0 0 0 0 0 0 0 0 0 0 0 0 0 0 0 0 0 0 0 0 0 0 0 0 0 0 0 0 0 0 0 0 0 0 0 0 0 0 0 0 0 0 0 0 0 0 0 0 0 0 0 0 0 0 0 0 0 0 0 0 0 0 0 0 0 0 0 0 0 0 0 0 0 0 0 0 0 0 0 0 0 0 0 0 0 0 0 0 0 0 0 0 0 0 0 0 0 0 0 0 0 0 0 0 0 0 0 0 0 0 0 0 0 0 0 0 0 0 0 0 0 0 0 0 0 0 0 0 0 0 0 0 0 0 0 0 0 0 0 0 0 0 0 0 0 0 0 0 0 0 0 0 0 0 0 0 0 0 0 0 0 0 0 0 0 0 0 0 0 0 0 0 0 0 0 0 0 0 0 0 0 0 0 0 0 0 0 0 0 0 0 0 0 0 0 0 0 0 0 0 0 0 0 0 0 0 0 0 0 0 0 0 0 0 0 0 0 0 0 0 0 0 0 0 0 0 0 0 0 0 0 0 0 0 0 0 0 0 0 0 0 0 0 0 0 0 0 0 0 0 0 0 0 0 0 0 0 0 0 0 0 0 0 0 0 0 0 0 0 0 0 0 0 0 0 0 0 0 0 0 0 0 0 0 0 0 0 0 0 0 0 0 0 0 0 0 0 0 0 0 0 0 0 0 0 0 0 0 0 0 0 0 0 0 0 0 0 0 0 0 0 0 0 0 0 0 0 0 0 0 0 0 0 0 0 0 0 0 0 0 0 0 0 0 0 0 0 0 0 0 0 0 0 0 0 0 0 0 0 0 0 0 0 0 0 0 0 0 0 0 0 0 0 0 0 0 0 0 0 0 0 0 0 0 0 0 0 0 0 0 0 0 0 0 0 0 0 0 0 0 0 0 0 0 0 0 0 0 0 0 0 0 0 0 0 0 0 0 0 0 0 0 0 0 0 0 0 0 0 0 0 0 0 0 0 0 0 0 0 0 0 0 0 0 0 0 0 0 0 0 0 0 0 0 0 0 0 0 0 0 0 0 0 0 0 0 0 0 0 0 0 0 0 0 0 0 0 0 0 0 0 0 0 0 0 0 0 0 0 0 0 0 0 0 0 0 0 0 0 0 0 0 0 0 0 0 0 0 0 0 0 0 0 0 0 0 0 0 0 0 0 0 0 0 0 0 0 0 0 0 0 0 0 0 0 0 0 0 0 0 0 0 0 0 0 0 0 0 0 0 0 0 0 0 0 0 0 0 0 0 0 0 0 0 0 0 0 0 0 0 0 0 0 0 0 0 0 0 0 0 0 0 0 0 0 0 0 0 0 0 0 0 0 0 0 0 0 0 0 0 0 0 0 0 0 0 0 0 0 0 0 0 0 0 0 0 0 0 0 0 0 0 0 0 0 0 0 0 0 0 0 0 0 0 0 0 0 0 0 0 0 0 0 0 0 0 0 0 0 0 0 0 0 0 0 0 0 0 0 0 0 0 0 0 0 0 0 0 0 0 0 0 0 0 0 0 0 0 0 0 0 0 0 0 0 0 0 0 0 0 0 0 0 0 0 0 0 0 0 0 0 0 0 0 0 0 0 0 0 0 0 0 0 0 0 0 0 0 0 0 0 0 0 0 0 0 0 0 0 0 0 0 0 0 0 0 0 0 0 0 0 0 0 0 0 0 0 0 0 0 0
        </DataArray>
        <DataArray type="Float32" Name="velocity" NumberOfComponents="3" format="ascii">
 -0.0101967494 -0.0034977056 0.4502669027 -0.0098248335 -0.0033956537 0.4509993156 -0.0109082415 -0.0037035837 0.4505320451 -0.0095252215 -0.0033038233 0.4500842202 -0.0103681220 -0.0035549833 0.4515339950 -0.0107650363 -0.0036571379 0.4496950347 -0.0090895398 -0.0031840966 0.4509143796 -0.0112946144 -0.0038185821 0.4511763340 -0.0097395395 -0.0033606266 0.4493484882 -0.0096671098 -0.0033560771 0.4518892220 -0.0115161211 -0.0038746317 0.4499998226 -0.0087424919 -0.0030798093 0.4501802151 -0.0110070161 -0.0037412253 0.4519866181 -0.0105527552 -0.0035914601 0.4489505609 -0.0087963898 -0.0031044763 0.4516197790 -0.0119443954 -0.0040030984 0.4508700005 -0.0090068134 -0.0031494820 0.4492127864 -0.0101242716 -0.0034911880 0.4525018324 -0.0115653383 -0.0038839107 0.4492416106 -0.0082294256 -0.0029363132 0.4507660159 -0.0117691014 -0.0039596330 0.4519404223 -0.0099073870 -0.0034032387 0.4484789447 -0.0089702500 -0.0031593183 0.4523940169 -0.0123020597 -0.0041014444 0.4501976841 -0.0082681045 -0.0029397586 0.4495681721 -0.0109091750 -0.0037183701 0.4528039727 -0.0111801007 -0.0037683764 0.4484624839 -0.0080410153 -0.0028875451 0.4515956678 -0.0124357511 -0.0041480555 0.4514877974 -0.0090335437 -0.0031520679 0.4484170395 -0.0095555537 -0.0033315545 0.4530615620 -0.0123080222 -0.0040974966 0.4493121353 -0.0077078115 -0.0027836367 0.4502990833 -0.0118163842 -0.0039781685 0.4527175591 -0.0104145756 -0.0035449051 0.4478707759 -0.0082274260 -0.0029468358 0.4525024418 -0.0128592468 -0.0042646431 0.4507136627 -0.0081444598 -0.0028995295 0.4488255647 -0.0104728090 -0.0035973506 0.4534625544 -0.0119225603 -0.0039807922 0.4483599853 -0.0074393326 -0.0027127296 0.4512600285 -0.0126360088 -0.0042102991 0.4522348188 -0.0093875874 -0.0032489596 0.4476797393 -0.0088170065 -0.0031213679 0.4533372028 -0.0129556736 -0.0042859254 0.4497136874 -0.0074301084 -0.0026996943 0.4496344451 -0.0115563524 -0.0039083480 0.4534692160 -0.0111343719 -0.0037493149 0.4475332332 -0.0075274594 -0.0027447586 0.4523144924 -0.0132124002 -0.0043704826 0.4514165401 -0.0083037027 -0.0029400448 0.4480143214 -0.0097908436 -0.0034046769 0.4539377174 -0.0126713554 -0.0041971818 0.4485948170 -0.0070082956 -0.0025854513 0.4506998992 -0.0125812614 -0.0041997337 0.4530400812 -0.0100078331 -0.0034231538 0.4470845239 -0.0080208247 -0.0028928826 0.4533376123 -0.0134630127 -0.0044355716 0.4503474806 -0.0073813256 -0.0026805598 0.4488309278 -0.0110220371 -0.0037592891 0.4541387729 -0.0119629004 -0.0039869534 0.4475125276 -0.0069382220 -0.0025729111 0.4518844210 -0.0133615320 -0.0044184848 0.4522309563 -0.0087322377 -0.0030578877 0.4472103081 -0.0089498744 -0.0031648920 0.4541812431 -0.0133409260 -0.0043926363 0.4491114181 -0.0067608918 -0.0025097668 0.4499668322 -0.0122733493 -0.0041165440 0.4538498691 -0.0108282061 -0.0036565462 0.4467656105 -0.0072661431 -0.0026746460 0.4530781049 -0.0138049873 -0.0045387543 0.4511366260 -0.0075658346 -0.0027277895 0.4479357307 -0.0102480846 -0.0035403805 0.4546395183 -0.0127948417 -0.0042276546 0.4478178214 -0.0064986882 -0.0024427718 0.4512581495 -0.0132991328 -0.0044061733 0.4531066084 -0.0094331843 -0.0032554397 0.4466461091 -0.0080502608 -0.0029065946 0.4541614255 -0.0138771507 -0.0045511657 0.4498381206 -0.0067069393 -0.0024887185 0.4490959816 -0.0116827713 -0.0039517902 0.4545900463 -0.0117526737 -0.0039218794 0.4467702800 -0.0066249344 -0.0024875257 0.4525920058 -0.0139692462 -0.0045915698 0.4520249224 -0.0080103292 -0.0028496282 0.4470403003 -0.0093417234 -0.0032818391 0.4548845531 -0.0135403064 -0.0044453677 0.4484093210 -0.0062263914 -0.0023596018 0.4504716092 -0.0130060485 -0.0043277905 0.4540027124 -0.0103148091 -0.0035083089 0.4466243430 -0.0071933727 -0.0026588720 0.4538776907 -0.0142546304 -0.0046650434 0.4507064116 -0.0068615209 -0.0025268233 0.4481168608 -0.0108142008 -0.0037056094 0.4550722157 -0.0127060807 -0.0041971834 0.4470356227 -0.0061356483 -0.0023428132 0.4519195255 -0.0139442311 -0.0045904593 0.4529745271 -0.0088137793 -0.0030781471 0.4467187357 -0.0083749744 -0.0030044751 0.4548960145 -0.0141433836 -0.0046235776 0.4492135044 -0.0061307148 -0.0023262483 0.4495489253 -0.0123622735 -0.0041482203 0.4548133215 -0.0112425867 -0.0037754356 0.4467610119 -0.0064630162 -0.0024459675 0.4533601818 -0.0144641763 -0.0047313055 0.4516651322 -0.0072783839 -0.0026401526 0.4471307086 -0.0098949594 -0.0034432616 0.4553000198 -0.0135797086 -0.0044516458 0.4476222734 -0.0058117438 -0.0022445852 0.4510942223 -0.0137077094 -0.0045288623 0.4539572363 -0.0097440567 -0.0033461147 0.4468747395 -0.0073575442 -0.0027110895 0.4546763292 -0.0145817575 -0.0047554045 0.4501559327 -0.0062250858 -0.0023466689 0.4485064407 -0.0113982170 -0.0038746259 0.4552937459 -0.0122327502 -0.0040604114 0.4468891821 -0.0058977249 -0.0022792326 0.4526547846 -0.0144987430 -0.0047477284 0.4526827572 -0.0081820539 -0.0028982425 0.4469358858 -0.0089543708 -0.0031736795 0.4553544307 -0.0142808486 -0.0046583801 0.4484862861 -0.0056566098 -0.0021939444 0.4501364620 -0.0130570796 -0.0043479068 0.4548588984 -0.0106626326 -0.0036106545 0.4470198267 -0.0064457111 -0.0024462199 0.4541768211 -0.0148524851 -0.0048396561 0.4511822052 -0.0065616599 -0.0024362402 0.4474081246 -0.0104597405 -0.0036069488 0.4555514204 -0.0133134800 -0.0043717229 0.4470713431 -0.0055054759 -0.0021612046 0.4518002936 -0.0143417448 -0.0047094361 0.4537410619 -0.0091628913 -0.0031807625 0.4470985770 -0.0079418664 -0.0028824022 0.4552434513 -0.0147994820 -0.0048136998 0.4495007085 -0.0056770360 -0.0021928930 0.4490546308 -0.0120078564 -0.0040502197 0.4553938569 -0.0116114317 -0.0038836286 0.4471275017 -0.0057737014 -0.0022487169 0.4534491800 -0.0149562924 -0.0048763465 0.4522619249 -0.0075112847 -0.0027070675 0.4471427769 -0.0095360820 -0.0033425405 0.4556551467 -0.0142828769 -0.0046538093 0.4476799482 -0.0052817778 -0.0020907371 0.4508190207 -0.0137907019 -0.0045578285 0.4547629879 -0.0100908421 -0.0034479018 0.4472294419 -0.0068122606 -0.0025562151 0.4549284187 -0.0151422083 -0.0049190491 0.4505951269 -0.0059015803 -0.0022497244 0.4478640645 -0.0110316341 -0.0037720365 0.4557025634 -0.0126467011 -0.0041813170 0.4472193884 -0.0052983624 -0.0021066850 0.4525698481 -0.0148853368 -0.0048631479 0.4533830073 -0.0085600699 -0.0030089278 0.4472805375 -0.0085743360 -0.0030663077 0.4556189563 -0.0149153536 -0.0048421330 0.4487465057 -0.0052242728 -0.0020671890 0.4497165454 -0.0126590541 -0.0042371281 0.4553982222 -0.0110153780 -0.0037138490 0.4473271363 -0.0057796403 -0.0022558185 0.4542937687 -0.0153191335 -0.0049771069 0.4517349412 -0.0067829023 -0.0024993251 0.4473444169 -0.0101047820 -0.0035070440 0.4558582812 -0.0138219241 -0.0045194164 0.4473499427 -0.0049995791 -0.0020145506 0.4515699649 -0.0145329284 -0.0047692921 0.4545219421 -0.0095179574 -0.0032845598 0.4473959777 -0.0075160879 -0.0027613833 0.4554266635 -0.0153410718 -0.0049717627 0.4499134529 -0.0053441934 -0.0020937527 0.4484879643 -0.0116227831 -0.0039421476 0.4557750606 -0.0119906764 -0.0039942507 0.4474070733 -0.0051846274 -0.0020793112 0.4533938727 -0.0153328508 -0.0049885534 0.4529101271 -0.0079211935 -0.0028265986 0.4474394124 -0.0091733131 -0.0032399050 0.4558854573 -0.0149080654 -0.0048347522 0.4479188291 -0.0048643362 -0.0019686275 0.4504571731 -0.0133675347 -0.0044398890 0.4553108144 -0.0104387812 -0.0035493878 0.4474852353 -0.0063033179 -0.0024107696 0.4550239693 -0.0155939315 -0.0050520167 0.4511165761 -0.0059905305 -0.0022734269 0.4475785648 -0.0106721003 -0.0036706768 0.4559872403 -0.0130767376 -0.0043064795 0.4474933610 -0.0048028357 -0.0019632290 0.4523742584 -0.0151583005 -0.0049462159 0.4541236593 -0.0089311792 -0.0031170599 0.4475358058 -0.0081820277 -0.0029547652 0.4557820081 -0.0154543296 -0.0049993144 0.4491386937 -0.0048916019 -0.0019685574 0.4492217650 -0.0122467740 -0.0041212333 0.4557771157 -0.0113763121 -0.0038189061 0.4475581605 -0.0051851051 -0.0020850358 0.4542682255 -0.0156883178 -0.0050869445 0.4523435497 -0.0072307641 -0.0026294448 0.4475936166 -0.0097500532 -0.0034066106 0.4560721392 -0.0143337597 -0.0046681652 0.4476413893 -0.0045901395 -0.0018950252 0.4512531456 -0.0141478309 -0.0046626158 0.4551226772 -0.0098687819 -0.0033866421 0.4476155086 -0.0070693615 -0.0026337636 0.4555177055 -0.0157881498 -0.0051032609 0.4504135733 -0.0051998360 -0.0020489223 0.4479554854 -0.0112504681 -0.0038370841 0.4560541313 -0.0123865353 -0.0041092805 0.4476302755 -0.0046863133 -0.0019352364 0.4532266142 -0.0156225109 -0.0050761078 0.4536030209 -0.0083169652 -0.0029416006 0.4476621750 -0.0088026393 -0.0031345178 0.4560401694 -0.0154655999 -0.0049970774 0.4482825196 -0.0045327443 -0.0018706847 0.4500217300 -0.0129185015 -0.0043135652 0.4557082149 -0.0107898566 -0.0036513978 0.4476821680 -0.0057749771 -0.0022591299 0.4550213714 -0.0159599205 -0.0051607560 0.4516967998 -0.0064728834 -0.0024130347 0.4477635828 -0.0103174137 -0.0035702216 0.4561957693 -0.0135326157 -0.0044388250 0.4477308725 -0.0043937061 -0.0018440141 0.4520921140 -0.0150001471 -0.0049052247 0.4548115007 -0.0092926643 -0.0032220305 0.4477285511 -0.0077727004 -0.0028379080 0.4558776818 -0.0159075204 -0.0051324795 0.4496251407 -0.0046405236 -0.0018929063 0.4486589316 -0.0118529306 -0.0040100412 0.4560639375 -0.0117483123 -0.0039268584 0.4477452858 -0.0046596526 -0.0019333482 0.4541284156 -0.0159817901 -0.0051753434 0.4529973922 -0.0076606521 -0.0027540531 0.4477875208 -0.0093922182 -0.0033048965 0.4562250643 -0.0148732956 -0.0048248449 0.4479299175 -0.0042576693 -0.0017971305 0.4508646757 -0.0136538351 -0.0045236435 0.4555599495 -0.0102177980 -0.0034879032 0.4477877268 -0.0065958180 -0.0024980138 0.4555407861 -0.0161565751 -0.0052125828 0.4509755621 -0.0056351757 -0.0021739971 0.4479775648 -0.0108878954 -0.0037343869 0.4562659835 -0.0128025776 -0.0042299089 0.4478231853 -0.0042686788 -0.0018137513 0.4529711646 -0.0157854584 -0.0051275271 0.4543317304 -0.0086974216 -0.0030518771 0.4478332653 -0.0084204538 -0.0030254883 0.4561418672 -0.0159485372 -0.0051386461 0.4487481483 -0.0042689699 -0.0017917721 0.4495186753 -0.0124936256 -0.0041936001 0.4560158141 -0.0111467789 -0.0037548587 0.4478435845 -0.0052175762 -0.0020986401 0.4549388796 -0.0162570708 -0.0052500282 0.4523221371 -0.0069464501 -0.0025499777 0.4479261841 -0.0099643228 -0.0034698893 0.4563518738 -0.0140182739 -0.0045796292 0.4479546716 -0.0040564645 -0.0017449799 0.4517395937 -0.0144674462 -0.0047555698 0.4553152855 -0.0096473266 -0.0033247906 0.4478817843 -0.0073422982 -0.0027146724 0.4559216653 -0.0162855392 -0.0052444965 0.4501780464 -0.0047355699 -0.0019178496 0.4482938389 -0.0114741768 -0.0039027732 0.4562871719 -0.0121345394 -0.0040387326 0.4479072284 -0.0042142402 -0.0018040331 0.4538951274 -0.0162141278 -0.0052464634 0.4536927850 -0.0080691713 -0.0028722547 0.4479385189 -0.0090280057 -0.0032010699 0.4563338083 -0.0154423080 -0.0049900875 0.4482346989 -0.0039874111 -0.0017166851 0.4504129328 -0.0131879628 -0.0043921404 0.4559030838 -0.0105677427 -0.0035892397 0.4479300542 -0.0060917581 -0.0023531336 0.4555055375 -0.0164597955 -0.0053034825 0.4515829669 -0.0061587572 -0.0023250220 0.4480977023 -0.0105317142 -0.0036332174 0.4564298514 -0.0132424693 -0.0043572947 0.4480024910 -0.0039209509 -0.0017118766 0.4526450649 -0.0153646198 -0.0050106873 0.4549470696 -0.0090657295 -0.0031584516 0.4479706041 -0.0080231137 -0.0029118455 0.4562022332 -0.0163502367 -0.0052574252 0.4492957708 -0.0040725326 -0.0017318152 0.4489579328 -0.0120897068 -0.0040792390 0.4562592054 -0.0115124910 -0.0038607038 0.4479833505 -0.0046346060 -0.0019303276 0.4547805391 -0.0164983828 -0.0053235214 0.4529858773 -0.0073928042 -0.0026788946 0.4480548610 -0.0096096950 -0.0033688670 0.4564690396 -0.0145364688 -0.0047297957 0.4481823641 -0.0037787288 -0.0016626395 0.4513271099 -0.0139518413 -0.0046101386 0.4557122734 -0.0099980535 -0.0034262559 0.4480091362 -0.0068868456 -0.0025839635 0.4559211571 -0.0165992451 -0.0053383571 0.4507779207 -0.0052869348 -0.0020763206 0.4483314683 -0.0111069247 -0.0037985077 0.4564637600 -0.0125384354 -0.0041555940 0.4480561254 -0.0038461777 -0.0016964413 0.4535875875 -0.0162647464 -0.0052655812 0.4544112518 -0.0084597548 -0.0029851252 0.4480607343 -0.0086541048 -0.0030942407 0.4564077920 -0.0160300902 -0.0051609803 0.4485807366 -0.0037679173 -0.0016504260 0.4499013998 -0.0127491420 -0.0042679604 0.4561773460 -0.0109214550 -0.0036915353 0.4480532679 -0.0055549366 -0.0021984937 0.4554142928 -0.0167092332 -0.0053791767 0.4522262203 -0.0066523407 -0.0024673034 0.4481967580 -0.0101787597 -0.0035327419 0.4565574330 -0.0137098891 -0.0044925731 0.4481806347 -0.0036325078 -0.0016266433 0.4522607357 -0.0147983430 -0.0048512091 0.4554214918 -0.0094250424 -0.0032622996 0.4480852226 -0.0076068481 -0.0027925457 0.4562272563 -0.0166815760 -0.0053563604 0.4498978561 -0.0043430574 -0.0018076543 0.4486768781 -0.0117028829 -0.0039694766 0.4564545179 -0.0118901501 -0.0039698981 0.4481107047 -0.0040483574 -0.0017605688 0.4545430934 -0.0166933394 -0.0053839478 0.4536865874 -0.0078150865 -0.0028007537 0.4481601244 -0.0092504224 -0.0032663150 0.4565553998 -0.0150881570 -0.0048896993 0.4484296713 -0.0035500430 -0.0015940295 0.4508605052 -0.0134682740 -0.0044734040 0.4560314117 -0.0103477181 -0.0035273066 0.4481193237 -0.0064026098 -0.0024447246 0.4558784232 -0.0168589424 -0.0054169382 0.4514121888 -0.0058331693 -0.0022334264 0.4483858731 -0.0107478237 -0.0036963531 0.4566046020 -0.0129636672 -0.0042785531 0.4482010601 -0.0035415249 -0.0016066717 0.4532213472 -0.0157280736 -0.0051153238 0.4549991337 -0.0088358804 -0.0030937202 0.4481631751 -0.0082670802 -0.0029834572 0.4564523377 -0.0165900406 -0.0053244130 0.4490092391 -0.0036070481 -0.0016006725 0.4493400435 -0.0123334775 -0.0041500909 0.4563992108 -0.0112818887 -0.0037956846 0.4481647072 -0.0049856926 -0.0020341770 0.4552648099 -0.0169144363 -0.0054423787 0.4529011240 -0.0071161861 -0.0026009475 0.4482796787 -0.0098259716 -0.0034321301 0.4566562104 -0.0142081471 -0.0046367640 0.4483685716 -0.0033935530 -0.0015552916 0.4518262553 -0.0142625529 -0.0046998941 0.4558042300 -0.0097784071 -0.0033643416 0.4481843585 -0.0071677776 -0.0026664913 0.4562194201 -0.0169558411 -0.0054391400 0.4505349127 -0.0049288856 -0.0019756401 0.4486557663 -0.0113295124 -0.0038633372 0.4566126318 -0.0122831361 -0.0040834559 0.4482325753 -0.0035473748 -0.0016147223 0.4542184247 -0.0166741541 -0.0053830161 0.4544023596 -0.0082169709 -0.0029166545 0.4482490412 -0.0088833383 -0.0031613562 0.4566159369 -0.0156708262 -0.0050587214 0.4487125735 -0.0033617400 -0.0015366756 0.4503417867 -0.0130138634 -0.0043446531 0.4562904927 -0.0106992048 -0.0036288092 0.4482183838 -0.0058865798 -0.0022960841 0.4557922963 -0.0170738706 -0.0054828467 0.4520738804 -0.0063471710 -0.0023812524 0.4484356260 -0.0103937045 -0.0035954465 0.4567170163 -0.0134140119 -0.0044087439 0.4483498887 -0.0032889935 -0.0015315528 0.4528070351 -0.0151420882 -0.0049501652 0.4554697194 -0.0092008805 -0.0031990346 0.4482518704 -0.0078633265 -0.0028677020 0.4564701550 -0.0169935885 -0.0054439002 0.4495846535 -0.0039601415 -0.0017002046 0.4490586020 -0.0119370720 -0.0040374876 0.4565802570 -0.0116521469 -0.0039026133 0.4482698794 -0.0043890801 -0.0018615998 0.4550517470 -0.0170829433 -0.0054952527 0.4536078081 -0.0075535216 -0.0027269105 0.4483511313 -0.0094703163 -0.0033305427 0.4567310732 -0.0147394778 -0.0047905795 0.4485773886 -0.0031954799 -0.0014953796 0.4513459926 -0.0137600081 -0.0045576620 0.4561153215 -0.0101287858 -0.0034654602 0.4482730893 -0.0067020524 -0.0025325773 0.4561786777 -0.0171828702 -0.0055085202 0.4511964502 -0.0054953619 -0.0021381905 0.4486531310 -0.0109661817 -0.0037598900 0.4567411472 -0.0126950460 -0.0042024470 0.4483548328 -0.0032322862 -0.0015217385 0.4538178603 -0.0160986582 -0.0052216300 0