<?xml version="1.0"?>
<VTKFile type="UnstructuredGrid" version="0.1" byte_order="LittleEndian">
  <UnstructuredGrid>
    <FieldData>
      <DataArray type="Float32" Name="TIME"  NumberOfTuples="1" format="ascii"> 0.7000000000 </DataArray>
      <DataArray type="Int32"   Name="STEP"  NumberOfTuples="1" format="ascii"> 70000 </DataArray>
    </FieldData>
    <Piece NumberOfPoints="2004" NumberOfCells="2004">
      <Points>
        <DataArray type="Float32" NumberOfComponents="3" format="ascii">
 0.0293666248 0.9982217178 -0.1023748227 -0.0427341561 0.9971375501 -0.0655177626 0.0040431874 0.9947993984 -0.1727525502 0.0484762345 0.9948573666 -0.0359855606 -0.0959508681 0.9980645910 -0.1192016666 0.0864994659 0.9960484237 -0.1586620917 -0.0319699802 0.9891839986 0.0071598020 -0.0583355217 0.9899285559 -0.2109401079 0.1207211809 0.9966427436 -0.0572485382 -0.1304407290 0.9960636162 -0.0498332539 0.0591296944 0.9860758577 -0.2329943206 0.0425382918 0.9827540571 0.0413760355 -0.1395716553 0.9938029180 -0.1823844585 0.1597836855 0.9973866020 -0.1377286791 -0.1001696147 0.9837879141 0.0361949080 -0.0243163167 0.9767351605 -0.2753328274 0.1367372692 0.9878866980 0.0151648238 -0.1916930726 0.9981608470 -0.0949820395 0.1344119379 0.9850887305 -0.2379451273 -0.0116552765 0.9698617791 0.0921058956 -0.1314058997 0.9809851812 -0.2578581472 0.2064522429 0.9975775167 -0.0739333672 -0.1777227650 0.9870798503 0.0190947409 0.0450346250 0.9666913144 -0.3108451912 0.1064874685 0.9710704585 0.0881676217 -0.2207193144 0.9948601974 -0.1726173059 0.2096905869 0.9914873570 -0.1998735950 -0.0920392890 0.9640533244 0.1107897102 -0.0814190025 0.9625719283 -0.3239675447 0.2153096625 0.9883816767 0.0124441868 -0.2461134320 0.9950666134 -0.0386870036 0.1327112375 0.9664247967 -0.3115252786 0.0395219085 0.9526809347 0.1435486228 -0.2079936555 0.9799616185 -0.2624642907 0.2664644364 0.9979069180 -0.1241643022 -0.1833674166 0.9696548723 0.0924760271 -0.0004588717 0.9471472517 -0.3660366679 0.1809805702 0.9675193983 0.1003018726 -0.2866543797 0.9977652674 -0.1293665851 0.2238814446 0.9770898453 -0.2734215952 -0.0524408549 0.9419925019 0.1701349442 -0.1533854913 0.9557684012 -0.3437462568 0.2867601715 0.9934231882 -0.0226201144 -0.2701524498 0.9840966669 0.0343291867 0.0996085831 0.9431129804 -0.3757012013 0.1084196519 0.9418092347 0.1708836914 -0.2839084296 0.9854918959 -0.2366308659 0.3014766742 0.9919847382 -0.1954397460 -0.1577591024 0.9454715852 0.1615449373 -0.0657248653 0.9321542789 -0.4009969028 0.2598735932 0.9721887989 0.0844979233 -0.3332089099 0.9964550593 -0.0618659126 0.2071729882 0.9540821141 -0.3476176095 0.0085986543 0.9225367223 0.2125937336 -0.2336206480 0.9577979601 -0.3382370255 0.3445933294 0.9968379077 -0.0840138937 -0.2641189926 0.9632318060 0.1129559545 0.0434995792 0.9199671873 -0.4259728390 0.1884715601 0.9398557052 0.1756165569 -0.3520294917 0.9922679687 -0.1836649532 0.3080720855 0.9758273615 -0.2775049423 -0.1075196615 0.9188777367 0.2196206510 -0.1443249305 0.9252540514 -0.4157120008 0.3366083400 0.9817851227 0.0420872141 -0.3538742837 0.9848382178 0.0212747448 0.1641154957 0.9257926777 -0.4139821413 0.0847505096 0.9099637199 0.2369138119 -0.3165123377 0.9676199487 -0.3076339244 0.3787762636 0.9873459522 -0.1652595584 -0.2300591045 0.9342853056 0.1873997984 -0.0293906047 0.9018086553 -0.4598388430 0.2748180425 0.9474825564 0.1573237262 -0.3980236841 0.9802215742 -0.1071307640 0.2854043338 0.9492653804 -0.3599416299 -0.0386841564 0.8950588200 0.2628854652 -0.2318314531 0.9283605552 -0.4094319141 0.3951939980 0.9718558153 -0.0273718541 -0.3453898124 0.9624439599 0.1101214265 0.1003076170 0.8974371932 -0.4671351976 0.1716989701 0.9071905976 0.2421461049 -0.3895857350 0.9673309914 -0.2491404659 0.3844225241 0.9657129184 -0.2568477224 -0.1726601719 0.9020761969 0.2505751434 -0.1145778017 0.8923893325 -0.4760590636 0.3603381657 0.9579712977 0.1133308179 -0.4112239887 0.9420967004 -0.0176906270 0.2364385151 0.9157175844 -0.4338398800 0.0438968537 0.8785247513 0.2896373453 -0.3240077815 0.9407765331 -0.3802704140 0.4136955884 0.9145561127 -0.1149524747 -0.3080813557 0.9305673777 0.1946546123 0.0210427190 0.8741967107 -0.5045380077 0.2661532324 0.9155053274 0.2268097659 -0.4180306487 0.9005718478 -0.1635979503 0.3642869303 0.9440529241 -0.3512727268 -0.0975528859 0.8723499135 0.2987191971 -0.2089894942 0.8940516420 -0.4734789222 0.4077701821 0.9032323064 0.0334697986 -0.4051301756 0.9172762121 0.0777848545 0.1667530812 0.8811097671 -0.4936383522 0.1369131813 0.8724905370 0.2989710521 -0.3981001453 0.9197802693 -0.3166398720 0.4129479199 0.8697013687 -0.2070032615 -0.2459069234 0.8925783887 0.2666085735 -0.0697776471 0.8601140444 -0.5252608770 0.3609080452 0.9250976282 0.1855354402 -0.4214422223 0.8342817941 -0.0730653943 0.3151985547 0.9125552699 -0.4378365487 -0.0094737680 0.8500384612 0.3305354338 -0.3099081375 0.9070564678 -0.4499002917 0.4166706568 0.8180922377 -0.0590837811 -0.3817146982 0.9117932035 0.1783742929 0.0820208301 0.8513423925 -0.5370992470 0.2382154526 0.8788073082 0.2895717865 -0.4172351501 0.8212176021 -0.2218550819 0.4034651076 0.8581908645 -0.3050131678 -0.1655393772 0.8558975858 0.3222234959 -0.1698076762 0.8578846310 -0.5285927724 0.4039924329 0.8417822272 0.0955904991 -0.4175018428 0.8021504383 0.0197798281 0.2412897020 0.8720039463 -0.5073676108 0.0885519130 0.8386621525 0.3457131551 -0.3907728927 0.8782754426 -0.3856323041 0.4170079118 0.7665587035 -0.1502661587 -0.3257215052 0.8892066941 0.2683805613 -0.0136621912 0.8308956004 -0.5639082561 0.3432462725 0.8912855983 0.2562470303 -0.4219500384 0.7491798802 -0.1294534824 0.3808590397 0.8737642843 -0.4118036126 -0.0725125058 0.8264322209 0.3607518895 -0.2776225431 0.8688318160 -0.5128863658 0.4143784132 0.7491415948 -0.0020118485 -0.4066075393 0.8028252509 0.1199322142 0.1515940475 0.8346850654 -0.5588090110 0.1950500766 0.8404642248 0.3435958790 -0.4118925566 0.7678625429 -0.2824929017 0.4117330676 0.7474655843 -0.2442347080 -0.2414741040 0.8467140371 0.3345129302 -0.1181468715 0.8227584118 -0.5741211209 0.3946358182 0.8033230980 0.1617193878 -0.4210585030 0.7106669387 -0.0383188784 0.3222311891 0.8679037290 -0.5076750896 0.0298415912 0.8081039471 0.3826653469 -0.3740476985 0.8527792454 -0.4583763681 0.4176778013 0.6921851980 -0.0941576861 -0.3837567889 0.8322187910 0.2318316589 0.0513589726 0.8065830216 -0.5927823962 0.3086663803 0.8548669400 0.3213564363 -0.4200182836 0.6901335148 -0.1863886799 0.3994001388 0.7583764755 -0.3465669378 -0.1436359401 0.8090774271 0.3812060681 -0.2307702532 0.8287891388 -0.5669513882 0.4095362202 0.7035196752 0.0573472329 -0.4146114945 0.7010395442 0.0567540258 0.2289029083 0.8252289288 -0.5704071348 0.1402544957 0.8034103067 0.3882136210 -0.4032350362 0.7359445033 -0.3471143568 0.4157640521 0.6648295942 -0.1857798688 -0.3236080038 0.8417811231 0.3339783873 -0.0569481995 0.7910231865 -0.6102696677 0.3801552001 0.7845506903 0.2336727942 -0.4222592467 0.6446155635 -0.0949777276 0.3750026015 0.7979457347 -0.4625566837 -0.0370895290 0.7825841219 0.4104930832 -0.3449710606 0.8342688678 -0.5319414561 0.4163192816 0.6397298421 -0.0378052248 -0.4006530622 0.7190833630 0.1615343414 0.1239642993 0.7884845333 -0.6126382339 0.2587908008 0.8138122018 0.3762944176 -0.4158796003 0.6504990787 -0.2451124835 0.4081020255 0.6636061397 -0.2822583731 -0.2222316243 0.7989490324 0.3924746714 -0.1729325673 0.7900839713 -0.6115150927 0.4018511855 0.6757750677 0.1203848838 -0.4193340771 0.6254062504 -0.0029547936 0.3123529549 0.8197465016 -0.5698039814 0.0766260881 0.7699674103 0.4236796966 -0.3904172017 0.7211423598 -0.4173021587 0.4175650229 0.6042743409 -0.1291128018 -0.3738836405 0.7650705765 0.2817578473 0.0118385613 0.7643793787 -0.6376854066 0.3582602141 0.7804327442 0.3120530699 -0.4214981946 0.5972971179 -0.1513875895 0.3923295080 0.6884133454 -0.3895267948 -0.1111072783 0.7633362318 0.4299128068 -0.2967797830 0.8033962901 -0.5940417638 0.4128754682 0.6037522671 0.0200242528 -0.4103776057 0.6302298785 0.0951258304 0.2037346676 0.7775379397 -0.6239893836 0.1979706351 0.7729719964 0.4208781662 -0.4091290041 0.6260324249 -0.3069951842 0.4136021435 0.5925922051 -0.2219227981 -0.3071088144 0.7933176129 0.3924788667 -0.1068903409 0.7551218954 -0.6469587583 0.3904508621 0.6626061160 0.1886149579 -0.4217678559 0.5693196729 -0.0603469452 0.3626069696 0.7404837549 -0.5135266510 0.0060086424 0.7417684298 0.4507032418 -0.3717289392 0.7205789199 -0.4945131997 0.4173997046 0.5601598573 -0.0729960890 -0.3925904908 0.6597748720 0.2053556131 0.0872116295 0.7439903514 -0.6570985013 0.3219636618 0.7772833208 0.3902878874 -0.4187221518 0.5643482125 -0.2088048872 0.4032536844 0.6034128565 -0.3217799533 -0.1919413063 0.7512427049 0.4414474156 -0.2335014199 0.7621888049 -0.6402778862 0.4069926256 0.5809233112 0.0806504095 -0.4167272712 0.5631328004 0.0333306033 0.2900339535 0.7719432815 -0.6252256413 0.1294850292 0.7360001993 0.4562208890 -0.3989992814 0.6142316248 -0.3735262631 0.4166949334 0.5392906604 -0.1642375313 -0.3594064692 0.7157186588 0.3337068471 -0.0344374050 0.7254885808 -0.6740803458 0.3738860810 0.6620252829 0.2635994829 -0.4222003710 0.5279972275 -0.1167232090 0.3832311057 0.6380746040 -0.4349211973 -0.0706864853 0.7198974251 0.4700790083 -0.3439129723 0.7305941388 -0.5787933309 0.4152645566 0.5288512068 -0.0161940259 -0.4048713443 0.5782183349 0.1352945888 0.1690130709 0.7306773086 -0.6690708334 0.2611921331 0.7467771640 0.4454917100 -0.4136471104 0.5430564350 -0.2685368964 0.4105238603 0.5386758122 -0.2590477116 -0.2795016325 0.7455095073 0.4441382920 -0.1625123507 0.7234487635 -0.6761267078 0.3980138766 0.5692508715 0.1455123054 -0.4205138076 0.5123711543 -0.0252977524 0.3460796990 0.6984142627 -0.5671387255 0.0551563914 0.7045416636 0.4833151892 -0.3842379155 0.6136247689 -0.4462857916 0.4177293557 0.4995155135 -0.1078918531 -0.3823605158 0.6163504951 0.2519243894 0.0435725651 0.7021957693 -0.6937548335 0.3498243422 0.6724258632 0.34655524
[...]
      <PointData Scalars="material ID">
        <DataArray type="Int32" Name="material ID" format="ascii">
 0 0 0 0 0 0 0 0 0 0 0 0 0 0 0 0 0 0 0 0 0 0 0 0 0 0 0 0 0 0 0 0 0 0 0 0 0 0 0 0 0 0 0 0 0 0 0 0 0 0 0 0 0 0 0 0 0 0 0 0 0 0 0 0 0 0 0 0 0 0 0 0 0 0 0 0 0 0 0 0 0 0 0 0 0 0 0 0 0 0 0 0 0 0 0 0 0 0 0 0 0 0 0 0 0 0 0 0 0 0 0 0 0 0 0 0 0 0 0 0 0 0 0 0 0 0 0 0 0 0 0 0 0 0 0 0 0 0 0 0 0 0 0 0 0 0 0 0 0 0 0 0 0 0 0 0 0 0 0 0 0 0 0 0 0 0 0 0 0 0 0 0 0 0 0 0 0 0 0 0 0 0 0 0 0 0 0 0 0 0 0 0 0 0 0 0 0 0 0 0 0 0 0 0 0 0 0 0 0 0 0 0 0 0 0 0 0 0 0 0 0 0 0 0 0 0 0 0 0 0 0 0 0 0 0 0 0 0 0 0 0 0 0 0 0 0 0 0 0 0 0 0 0 0 0 0 0 0 0 0 0 0 0 0 0 0 0 0 0 0 0 0 0 0 0 0 0 0 0 0 0 0 0 0 0 0 0 0 0 0 0 0 0 0 0 0 0 0 0 0 0 0 0 0 0 0 0 0 0 0 0 0 0 0 0 0 0 0 0 0 0 0 0 0 0 0 0 0 0 0 0 0 0 0 0 0 0 0 0 0 0 0 0 0 0 0 0 0 0 0 0 0 0 0 0 0 0 0 0 0 0 0 0 0 0 0 0 0 0 0 0 0 0 0 0 0 0 0 0 0 0 0 0 0 0 0 0 0 0 0 0 0 0 0 0 0 0 0 0 0 0 0 0 0 0 0 0 0 0 0 0 0 0 0 0 0 0 0 0 0 0 0 0 0 0 0 0 0 0 0 0 0 0 0 0 0 0 0 0 0 0 0 0 0 0 0 0 0 0 0 0 0 0 0 0 0 0 0 0 0 0 0 0 0 0 0 0 0 0 0 0 0 0 0 0 0 0 0 0 0 0 0 0 0 0 0 0 0 0 0 0 0 0 0 0 0 0 0 0 0 0 0 0 0 0 0 0 0 0 0 0 0 0 0 0 0 0 0 0 0 0 0 0 0 0 0 0 0 0 0 0 0 0 0 0 0 0 0 0 0 0 0 0 0 0 0 0 0 0 0 0 0 0 0 0 0 0 0 0 0 0 0 0 0 0 0 0 0 0 0 0 0 0 0 0 0 0 0 0 0 0 0 0 0 0 0 0 0 0 0 0 0 0 0 0 0 0 0 0 0 0 0 0 0 0 0 0 0 0 0 0 0 0 0 0 0 0 0 0 0 0 0 0 0 0 0 0 0 0 0 0 0 0 0 0 0 0 0 0 0 0 0 0 0 0 0 0 0 0 0 0 0 0 0 0 0 0 0 0 0 0 0 0 0 0 0 0 0 0 0 0 0 0 0 0 0 0 0 0 0 0 0 0 0 0 0 0 0 0 0 0 0 0 0 0 0 0 0 0 0 0 0 0 0 0 0 0 0 0 0 0 0 0 0 0 0 0 0 0 0 0 0 0 0 0 0 0 0 0 0 0 0 0 0 0 0 0 0 0 0 0 0 0 0 0 0 0 0 0 0 0 0 0 0 0 0 0 0 0 0 0 0 0 0 0 0 0 0 0 0 0 0 0 0 0 0 0 0 0 0 0 0 0 0 0 0 0 0 0 0 0 0 0 0 0 0 0 0 0 0 0 0 0 0 0 0 0 0 0 0 0 0 0 0 0 0 0 0 0 0 0 0 0 0 0 0 0 0 0 0 0 0 0 0 0 0 0 0 0 0 0 0 0 0 0 0 0 0 0 0 0 0 0 0 0 0 0 0 0 0 0 0 0 0 0 0 0 0 0 0 0 0 0 0 0 0 0 0 0 0 0 0 0 0 0 0 0 0 0 0 0 0 0 0 0 0 0 0 0 0 0 0 0 0 0 0 0 0 0 0 0 0 0 0 0 0 0 0 0 0 0 0 0 0 0 0 0 0 0 0 0 0 0 0 0 0 0 0 0 0 0 0 0 0 0 0 0 0 0 0 0 0 0 0 0 0 0 0 0 0 0 0 0 0 0 0 0 0 0 0 0 0 0 0 0 0 0 0 0 0 0 0 0 0 0 0 0 0 0 0 0 0 0 0 0 0 0 0 0 0 0 0 0 0 0 0 0 0 0 0 0 0 0 0 0 0 0 0 0 0 0 0 0 0 0 0 0 0 0 0 0 0 0 0 0 0 0 0 0 0 0 0 0 0 0 0 0 0 0 0 0 0 0 0 0 0 0 0 0 0 0 0 0 0 0 0 0 0 0 0 0 0 0 0 0 0 0 0 0 0 0 0 0 0 0 0 0 0 0 0 0 0 0 0 0 0 0 0 0 0 0 0 0 0 0 0 0 0 0 0 0 0 0 0 0 0 0 0 0 0 0 0 0 0 0 0 0 0 0 0 0 0 0 0 0 0 0 0 0 0 0 0 0 0 0 0 0 0 0 0 0 0 0 0 0 0 0 0 0 0 0 0 0 0 0 0 0 0 0 0 0 0 0 0 0 0 0 0 0 0 0 0 0 0 0 0 0 0 0 0 0 0 0 0 0 0 0 0 0 0 0 0 0 0 0 0 0 0 0 0 0 0 0 0 0 0 0 0 0 0 0 0 0 0 0 0 0 0 0 0 0 0 0 0 0 0 0 0 0 0 0 0 0 0 0 0 0 0 0 0 0 0 0 0 0 0 0 0 0 0 0 0 0 0 0 0 0 0 0 0 0 0 0 0 0 0 0 0 0 0 0 0 0 0 0 0 0 0 0 0 0 0 0 0 0 0 0 0 0 0 0 0 0 0 0 0 0 0 0 0 0 0 0 0 0 0 0 0 0 0 0 0 0 0 0 0 0 0 0 0 0 0 0 0 0 0 0 0 0 0 0 0 0 0 0 0 0 0 0 0 0 0 0 0 0 0 0 0 0 0 0 0 0 0 0 0 0 0 0 0 0 0 0 0 0 0 0 0 0 0 0 0 0 0 0 0 0 0 0 0 0 0 0 0 0 0 0 0 0 0 0 0 0 0 0 0 0 0 0 0 0 0 0 0 0 0 0 0 0 0 0 0 0 0 0 0 0 0 0 0 0 0 0 0 0 0 0 0 0 0 0 0 0 0 0 0 0 0 0 0 0 0 0 0 0 0 0 0 0 0 0 0 0 0 0 0 0 0 0 0 0 0 0 0 0 0 0 0 0 0 0 0 0 0 0 0 0 0 0 0 0 0 0 0 0 0 0 0 0 0 0 0 0 0 0 0 0 0 0 0 0 0 0 0 0 0 0 0 0 0 0 0 0 0 0 0 0 0 0 0 0 0 0 0 0 0 0 0 0 0 0 0 0 0 0 0 0 0 0 0 0 0 0 0 0 0 0 0 0 0 0 0 0 0 0 0 0 0 0 0 0 0 0 0 0 0 0 0 0 0 0 0 0 0 0 0 0 0 0 0 0 0 0 0 0 0 0 0 0 0 0 0 0 0 0 0 0 0 0 0 0 0 0 0 0 0 0 0 0 0 0 0 0 0 0 0 0 0 0 0 0 0 0 0 0 0 0 0 0 0 0 0 0 0 0 0 0 0 0 0 0 0 0 0 0 0 0 0 0 0 0 0 0 0 0 0 0 0 0 0 0 0 0 0 0 0 0 0 0 0 0 0 0 0 0 0 0 0 0 0 0 0 0 0 0 0 0 0 0 0 0 0 0 0 0 0 0 0 0 0 0 0 0 0 0 0 0 0 0 0 0 0 0 0 0 0 0 0 0 0 0 0 0 0 0 0 0 0 0 0 0 0 0 0 0 0 0 0 0 0 0 0 0 0 0 0 0 0 0 0 0 0 0 0 0 0 0 0 0 0 0 0 0 0 0 0 0 0 0 0 0 0 0 0 0 0 0 0 0 0 0 0 0 0 0 0 0 0 0 0 0 0 0 0 0 0 0 0 0 0 0 0 0 0 0 0 0 0 0 0 0 0 0 0 0 0 0 0 0 0 0 0 0 0 0 0 0 0 0 0 0 0 0 0 0 0 0 0 0 0 0 0 0 0 0 0 0 0 0 0 0 0 0 0 0 0 0 0 0 0 0 0 0 0 0 0 0 0 0 0 0 0 0 0 0 0 0 0 0 0 0 0 0 0 0 0 0 0 0 0 0 0 0 0 0 0 0 0 0 0 0 0 0 0 0 0 0 0 0 0 0 0 0 0 0 0 0 0 0 0 0 0 0 0 0 0 0 0 0 0 0 0 0 0 0 0 0 0 0 0 0 0 0 0 0 0 0 0 0 0 0 0 0 0 0 0 0 0 0 0 0 0 0 0 0 0 0 0 0 0 0 0 0 0 0 0 0 0 0 0 0 0 0 0 0 0 0 0 0 0 0 0 0 0
        </DataArray>
        <DataArray type="Float32" Name="velocity" NumberOfComponents="3" format="ascii">
 -0.0102000055 -0.0034986403 1.4312669378 -0.0098273501 -0.0033963735 1.4319989447 -0.0109112279 -0.0037044459 1.4315328590 -0.0095286639 -0.0033048068 1.4310835203 -0.0103700967 -0.0035555514 1.4325342192 -0.0107688691 -0.0036582420 1.4306956908 -0.0090921440 -0.0031848365 1.4319132041 -0.0112969485 -0.0038192599 1.4321775715 -0.0097437251 -0.0033618248 1.4303480218 -0.0096687271 -0.0033565378 1.4328886797 -0.0115196441 -0.0038756521 1.4310013009 -0.0087458392 -0.0030807600 1.4311786589 -0.0110085318 -0.0037416662 1.4329875420 -0.0105573412 -0.0035927788 1.4299509838 -0.0087982816 -0.0031050097 1.4326182837 -0.0119470376 -0.0040038691 1.4318719485 -0.0090111380 -0.0031507149 1.4302115181 -0.0101252685 -0.0034914738 1.4335017911 -0.0115696276 -0.0038851515 1.4302431418 -0.0082321818 -0.0029370907 1.4317638991 -0.0117706618 -0.0039600921 1.4329421799 -0.0099124513 -0.0034046902 1.4294786608 -0.0089713586 -0.0031596282 1.4333927128 -0.0123053807 -0.0041024124 1.4312000226 -0.0082720716 -0.0029408838 1.4305660960 -0.0109098646 -0.0037185732 1.4338047906 -0.0111851786 -0.0037698408 1.4294635925 -0.0080429332 -0.0028880807 1.4325933459 -0.0124377675 -0.0041486500 1.4324902838 -0.0090386727 -0.0031535319 1.4294157995 -0.0095559861 -0.0033316743 1.4340608991 -0.0123122384 -0.0040987215 1.4303144792 -0.0077110411 -0.0027845464 1.4312963952 -0.0118171589 -0.0039784024 1.4337193695 -0.0104202535 -0.0035465362 1.4288710462 -0.0082284268 -0.0029471095 1.4335003250 -0.0128620448 -0.0042654649 1.4317166115 -0.0081491779 -0.0029008694 1.4298233524 -0.0104728338 -0.0035973599 1.4344628957 -0.0119277400 -0.0039822910 1.4293619062 -0.0074415914 -0.0027133588 1.4322570479 -0.0126372696 -0.0042106783 1.4332375253 -0.0093934609 -0.0032506397 1.4286788857 -0.0088171620 -0.0031214031 1.4343357323 -0.0129594823 -0.0042870379 1.4307167404 -0.0074340105 -0.0027007950 1.4306314522 -0.0115563679 -0.0039083622 1.4344707428 -0.0111403893 -0.0037510485 1.4285342906 -0.0075286519 -0.0027450824 1.4333116095 -0.0132144868 -0.0043711027 1.4324198762 -0.0083092406 -0.0029416211 1.4290122823 -0.0097903897 -0.0034045440 1.4349373131 -0.0126762959 -0.0041986172 1.4295975575 -0.0070111217 -0.0025862402 1.4316964462 -0.0125817083 -0.0041998789 1.4340427289 -0.0100143068 -0.0034250105 1.4280843481 -0.0080209818 -0.0028929127 1.4343352706 -0.0134661795 -0.0044365034 1.4313510896 -0.0073860401 -0.0026818933 1.4298278805 -0.0110213770 -0.0037591057 1.4351397160 -0.0119689367 -0.0039886983 1.4285144915 -0.0069398507 -0.0025733560 1.4328808929 -0.0133627949 -0.0044188696 1.4332344566 -0.0087385873 -0.0030596999 1.4282087368 -0.0089491763 -0.0031646832 1.4351799190 -0.0133453427 -0.0043939259 1.4301148919 -0.0067644595 -0.0025107669 1.4309631075 -0.0122729782 -0.0041164523 1.4348521809 -0.0108350002 -0.0036585005 1.4277663320 -0.0072665643 -0.0026747466 1.4340749371 -0.0138073554 -0.0045394593 1.4321406102 -0.0075714537 -0.0027293839 1.4289328842 -0.0102469202 -0.0035400470 1.4356396153 -0.0128005674 -0.0042293161 1.4288206960 -0.0065009511 -0.0024433956 1.4322541397 -0.0132995107 -0.0044063037 1.4341100417 -0.0094401026 -0.0032574199 1.4276453040 -0.0080495849 -0.0029063859 1.4351591171 -0.0138808314 -0.0045522480 1.4308421820 -0.0067113875 -0.0024899709 1.4300921967 -0.0116816534 -0.0039514800 1.4355917130 -0.0117594609 -0.0039238382 1.4277720130 -0.0066258486 -0.0024877634 1.4335881358 -0.0139707160 -0.0045920182 1.4330290874 -0.0080168525 -0.0028514852 1.4280379389 -0.0093403134 -0.0032814288 1.4358836586 -0.0135454323 -0.0044468623 1.4294130120 -0.0062294501 -0.0023604521 1.4314673004 -0.0130055212 -0.0043276591 1.4350058261 -0.0103217473 -0.0035103011 1.4276245025 -0.0071929857 -0.0026587402 1.4348744444 -0.0142574324 -0.0046658762 1.4317108871 -0.0068669586 -0.0025283607 1.4291132439 -0.0108125975 -0.0037051539 1.4360729326 -0.0127125973 -0.0041990713 1.4280383991 -0.0061372435 -0.0023432428 1.4329151193 -0.0139447409 -0.0045906321 1.4339786660 -0.0088206256 -0.0030801024 1.4277172530 -0.0083735552 -0.0030040553 1.4358940624 -0.0141476951 -0.0046248427 1.4302178563 -0.0061347066 -0.0023273656 1.4305445106 -0.0123609283 -0.0041478497 1.4358157319 -0.0112493845 -0.0037773939 1.4277621867 -0.0064631542 -0.0024459812 1.4343561357 -0.0144660086 -0.0047318614 1.4326698383 -0.0072848175 -0.0026419787 1.4281275464 -0.0098931281 -0.0034427342 1.4362997312 -0.0135856300 -0.0044533690 1.4286260065 -0.0058141741 -0.0022452522 1.4320894606 -0.0137072263 -0.0045287485 1.4349611176 -0.0097507431 -0.0033480306 1.4278742749 -0.0073563495 -0.0027107271 1.4356732635 -0.0145851152 -0.0047563990 1.4311607654 -0.0062301311 -0.0023480893 1.4295021279 -0.0113963884 -0.0038741098 1.4362951021 -0.0122394160 -0.0040623388 1.4278914404 -0.0058985774 -0.0022794474 1.4336501190 -0.0144995465 -0.0047479893 1.4336875024 -0.0081886822 -0.0029001308 1.4279337121 -0.0089524867 -0.0031731304 1.4363531130 -0.0142858950 -0.0046598570 1.4294907875 -0.0056600087 -0.0021948883 1.4311315293 -0.0130556866 -0.0043475273 1.4358620691 -0.0106691702 -0.0036125341 1.4280203673 -0.0064450235 -0.0024459966 1.4351727571 -0.0148548047 -0.0048403545 1.4321873356 -0.0065678148 -0.0024379813 1.4284041786 -0.0104576536 -0.0036063521 1.4365517501 -0.0133199591 -0.0043736043 1.4280747842 -0.0055071931 -0.0021616648 1.4327951977 -0.0143414787 -0.0047093890 1.4347456368 -0.0091693528 -0.0031826098 1.4280974767 -0.0079400970 -0.0028818789 1.4362410256 -0.0148035016 -0.0048148858 1.4305057786 -0.0056815285 -0.0021941508 1.4300497191 -0.0120059251 -0.0040496784 1.4363958803 -0.0116178581 -0.0038854829 1.4281290805 -0.0057737511 -0.0022487005 1.4344443797 -0.0149575202 -0.0048767324 1.4332671702 -0.0075177056 -0.0027088916 1.4281398696 -0.0095338925 -0.0033419078 1.4366544659 -0.0142887384 -0.0046555202 1.4286844507 -0.0052844875 -0.0020914806 1.4318136788 -0.0137894041 -0.0045574815 1.4357669612 -0.0100971691 -0.0034497169 1.4282293572 -0.0068108123 -0.0025557761 1.4359247567 -0.0151451207 -0.0049199197 1.4316005734 -0.0059072758 -0.0022513291 1.4288593969 -0.0110293931 -0.0037713995 1.4367035190 -0.0126530321 -0.0041831512 1.4282221001 -0.0052993022 -0.0021069207 1.4335645266 -0.0148854314 -0.0048632080 1.4343881764 -0.0085663489 -0.0030107185 1.4282787779 -0.0085721854 -0.0030656795 1.4366172232 -0.0149201353 -0.0048435384 1.4297517017 -0.0052280972 -0.0020682520 1.4307111392 -0.0126571168 -0.0042365896 1.4364009581 -0.0110216040 -0.0037156417 1.4283280633 -0.0057788361 -0.0022555571 1.4352889761 -0.0153208931 -0.0049776479 1.4327405829 -0.0067891210 -0.0025010861 1.4283407129 -0.0101023858 -0.0035063559 1.4368582229 -0.0138281203 -0.0045212201 1.4283539404 -0.0050015304 -0.0020150745 1.4325643152 -0.0145318725 -0.0047690196 1.4355267272 -0.0095241175 -0.0032863230 1.4283952663 -0.0075141343 -0.0027608041 1.4364237722 -0.0153446728 -0.0049728323 1.4309191161 -0.0053492596 -0.0020951729 1.4294826877 -0.0116204674 -0.0039414932 1.4367766631 -0.0119968193 -0.0039960263 1.4284090675 -0.0051847344 -0.0020793071 1.4343884278 -0.0153334224 -0.0049887536 1.4339157852 -0.0079273135 -0.0028283392 1.4284369540 -0.0091708917 -0.0032392032 1.4368843799 -0.0149136839 -0.0048363978 1.4289240159 -0.0048674128 -0.0019694733 1.4314513739 -0.0133656841 -0.0044393804 1.4363143254 -0.0104448488 -0.0035511310 1.4284855316 -0.0063017743 -0.0024102996 1.4360197505 -0.0155963157 -0.0050527389 1.4321225176 -0.0059965144 -0.0022751149 1.4285739942 -0.0106695723 -0.0036699550 1.4369878030 -0.0130827906 -0.0043082370 1.4284965436 -0.0048039743 -0.0019635183 1.4333683945 -0.0151576457 -0.0049460630 1.4351291281 -0.0089371993 -0.0031187789 1.4285344526 -0.0081797133 -0.0029540872 1.4367798459 -0.0154587136 -0.0050006094 1.4301444799 -0.0048959274 -0.0019697619 1.4302159941 -0.0122444547 -0.0041205824 1.4367794010 -0.0113823038 -0.0038206341 1.4285594826 -0.0051843282 -0.0020847780 1.4352627823 -0.0156894613 -0.0050873113 1.4333495961 -0.0072367299 -0.0026311364 1.4285904030 -0.0097474416 -0.0034058583 1.4370716931 -0.0143396600 -0.0046698876 1.4286459474 -0.0045924120 -0.0018956384 1.4322470475 -0.0141461686 -0.0046621667 1.4361270416 -0.0098747192 -0.0033883439 1.4286151814 -0.0070673169 -0.0026331553 1.4365143256 -0.0157912441 -0.0051041883 1.4314197264 -0.0052054408 -0.0020504960 1.4289500501 -0.0112478712 -0.0038363465 1.4370553268 -0.0123924516 -0.0041109938 1.4286327031 -0.0046865906 -0.0019352776 1.4342206239 -0.0156223814 -0.0050761088 1.4346089969 -0.0083228590 -0.0029432790 1.4286601499 -0.0088000623 -0.0031337688 1.4370386867 -0.0154708494 -0.0049986210 1.4292883170 -0.0045362619 -0.0018716548 1.4310155675 -0.0129162502 -0.0043129384 1.4367112351 -0.0107957242 -0.0036530860 1.4286828486 -0.0057734374 -0.0022586574 1.4360165746 -0.0159617172 -0.0051613121 1.4327031424 -0.0064786791 -0.0024146721 1.4287595402 -0.0103146758 -0.0035694370 1.4371959441 -0.0135384275 -0.0044405165 1.4287345543 -0.0043951309 -0.0018443827 1.4330858021 -0.0149987974 -0.0049048712 1.4358167973 -0.0092984886 -0.0032236958 1.4287275937 -0.0077702902 -0.0028371996 1.4368750720 -0.0159114116 -0.0051336363 1.4306314234 -0.0046454186 -0.0018942725 1.4296528852 -0.0118503223 -0.0040093046 1.4370657922 -0.0117541138 -0.0039285344 1.4287470153 -0.0046590183 -0.0019331277 1.4351223973 -0.0159822719 -0.0051755224 1.4340037605 -0.0076664207 -0.0027556910 1.4287847778 -0.0093894530 -0.0033040976 1.4372242269 -0.0148789030 -0.0048264870 1.4289350664 -0.0042603354 -0.0017978543 1.4318582134 -0.0136517319 -0.0045230643 1.4365637740 -0.0102235603 -0.0034895572 1.4287877817 -0.0065937512 -0.0024973958 1.4365368880 -0.0161591004 -0.0052133495 1.4319821190 -0.0056407572 -0.0021755671 1.4289726059 -0.0108850851 -0.0037335855 1.4372667826 -0.0128082978 -0.0042315689 1.4288260684 -0.0042692153 -0.0018138641 1.4339647170 -0.0157845918 -0.0051273178 1.4353378856 -0.0087031415 -0.0030535084 1.4288316568 -0.0084177750 -0.0030247074 1.4371399664 -0.0159533148 -0.0051400576 1.4297544747 -0.0042729966 -0.0017928865 1.4305122236 -0.0124910644 -0.0041928814 1.4370183698 -0.0111524825 -0.0037565024 1.4288446559 -0.0052161212 -0.0020981879 1.4359334728 -0.0162582345 -0.0052504048 1.4333288058 -0.0069520803 -0.0025515710 1.4289226598 -0.0099614280 -0.0034690572 1.4373516625 -0.0140238583 -0.0045812588 1.4289588849 -0.0040582465 -0.0017454486 1.4327329123 -0.0144655884 -0.0047550668 1.4363199999 -0.0096529952 -0.0033264137 1.4288812152 -0.0073398446 -0.0027139486 1.4369185845 -0.0162888705 -0.0052454953 1.4311847434 -0.0047408338 -0.0019193222 1.4292878961 -0.0114713437 -0.0039019693 1.4372886125 -0.0121401763 -0.0040403640 1.4289093806 -0.0042138428 -0.0018038774 1.4348886215 -0.0162139061 -0.0052464421 1.4346994084 -0.0080747864 -0.0028738514 1.4289362231 -0.0090251314 -0.0032002371 1.4373325725 -0.0154476059 -0.0049916448 1.4292404708 -0.0039905345 -0.0017175383 1.4314061742 -0.0131855139 -0.0043914588 1.4369063990 -0.0105733603 -0.0035908546 1.4289304922 -0.0060897281 -0.0023525226 1.4365010879 -0.0164617060 -0.0053040748 1.4325898564 -0.0061642159 -0.0023265605 1.4290933164 -0.0105287391 -0.0036323662 1.4374302610 -0.0132480072 -0.0043589055 1.4290058556 -0.0039218179 -0.0017120818 1.4336382365 -0.0153631321 -0.0050102968 1.4359527652 -0.0090713097 -0.0031600453 1.4289693987 -0.0080203748 -0.0029110446 1.4371998978 -0.0163544598 -0.0052586804 1.4303025375 -0.0040771267 -0.0017330910 1.4299512654 -0.0120869006 -0.0040784472 1.4372613195 -0.0115180524 -0.0038623092 1.4289848223 -0.0046333124 -0.0019299178 1.4357744943 -0.0164988750 -0.0053237069 1.4339928109 -0.0073983032 -0.0026804533 1.4290518252 -0.0096066825 -0.0033679987 1.4374684404 -0.0145418218 -0.0047313624 1.4291871448 -0.0037809285 -0.0016632261 1.4323201241 -0.0139495835 -0.0046095172 1.4367164242 -0.0100035925 -0.0034278443 1.4290089509 -0.0068843936 -0.0025832370 1.4369175780 -0.0166019691 -0.0053391838 1.4317849617 -0.0052921593 -0.0020777858 1.4293261288 -0.0111039140 -0.0037976504 1.4374647990 -0.0125439208 -0.0041571848 1.4290587198 -0.0038460920 -0.0016963726 1.4345806784 -0.0162637982 -0.0052653518 1.4354179316 -0.0084652454 -0.0029866890 1.4290588660 -0.0086511566 -0.0030933841 1.4374061472 -0.0160350368 -0.0051624409 1.4295871520 -0.0037715584 -0.0016514262 1.4308944003 -0.0127464169 -0.0042671964 1.4371801814 -0.0109269471 -0.0036931167 1.4290540930 -0.0055530001 -0.0021979058 1.4364092557 -0.0167104929 -0.0053795839 1.4332333836 -0.0066576981 -0.0024688163 1.4291929123 -0.0101756565 -0.0035318515 1.4375574566 -0.0137152458 -0.0044941351 1.4291845109 -0.0036337641 -0.0016269582 1.4332535911 -0.0147963770 -0.0048506774 1.4364265684 -0.0094305058 -0.0032638623 1.4290844105 -0.0076040849 -0.0027917349 1.4372244654 -0.0166851895 -0.0053574430 1.4309049861 -0.0043479350 -0.0018090133 1.4296705064 -0.0116998801 -0.0039686256 1.4374562089 -0.0118955819 -0.0039714690 1.4291125898 -0.0040473053 -0.0017602242 1.4355364068 -0.0166931228 -0.0053839313 1.4346937351 -0.0078204782 -0.0028022845 1.4291575508 -0.0092473235 -0.0032654193 1.4375544077 -0.0150932586 -0.0048911978 1.4294350559 -0.0035527150 -0.0015947501 1.4318532686 -0.0134656946 -0.0044726870 1.4370350338 -0.0103531449 -0.0035288653 1.4291195212 -0.0064002022 -0.0024440074 1.4368743142 -0.0168610246 -0.0054175825 1.4324195148 -0.0058383375 -0.0022348793 1.4293811314 -0.0107446715 -0.0036954526 1.4376052483 -0.0129690051 -0.0042801045 1.4292041199 -0.0035418102 -0.0016067073 1.4342141043 -0.0157265324 -0.0051149205 1.4360052270 -0.0088412665 -0.0030952566 1.4291617184 -0.0082640878 -0.0029825852 1.4374502695 -0.0165945527 -0.0053257528 1.4300162677 -0.0036112571 -0.0016018345 1.4303328673 -0.0123305290 -0.0041492600 1.4374015917 -0.0112872674 -0.0037972360 1.4291659269 -0.0049839086 -0.0020336289 1.4362591498 -0.0169150132 -0.0054425914 1.4339085127 -0.0071214585 -0.0026024392 1.4292763406 -0.0098227694 -0.0034312089 1.4376558481 -0.0142133127 -0.0046382746 1.4293729933 -0.0033952491 -0.0015557310 1.4328188487 -0.0142602013 -0.0046992480 1.4368087209 -0.0097837695 -0.0033658778 1.4291839332 -0.0071650234 -0.0026656800 1.4372161487 -0.0169588100 -0.0054400395 1.4315423436 -0.0049337831 -0.0019770090 1.4296500355 -0.0113263507 -0.0038624381 1.4376139146 -0.0122884437 -0.0040849939 1.4292348906 -0.0035466522 -0.0016144686 1.4352111896 -0.0166732139 -0.0053827918 1.4354094873 -0.0082222717 -0.0029181621 1.4292469075 -0.0088801791 -0.0031604407 1.4376145431 -0.0156756405 -0.0050601415 1.4297185960 -0.0033649368 -0.0015375455 1.4313343434 -0.0130110233 -0.0043438580 1.4372936180 -0.0107045306 -0.0036303413 1.4292189660 -0.0058842605 -0.0022953887 1.4367876226 -0.0170752834 -0.0054833004 1.4330814424 -0.0063522877 -0.0023826941 1.4294314467 -0.0103904395 -0.0035945111 1.4377172752 -0.0134191982 -0.0044102550 1.4293534414 -0.0032896983 -0.0015317070 1.4337995153 -0.0151400727 -0.0049496216 1.4364751722 -0.0092061760 -0.0032005476 1.4292508132 -0.0078603171 -0.0028668223 1.4374676450 -0.0169975180 -0.0054450756 1.4305921245 -0.0039646341 -0.0017014505 1.4300518117 -0.0119339415 -0.0040366016 1.4375822045 -0.0116574184 -0.0039041365 1.4292715043 -0.0043875130 -0.0018611097 1.4360454338 -0.0170828053 -0.0054952615 1.4346153821 -0.0075587208 -0.0027283843 1.4293482718 -0.0094670393 -0.0033295975 1.4377303219 -0.0147444310 -0.0047920329 1.4295823919 -0.0031976620 -0.0014959571 1.4323383687 -0.0137573432 -0.0045569224 1.4371192629 -0.0101340576 -0.0034669728 1.4292730475 -0.0066993405 -0.0025317749 1.4371748968 -0.0171851697 -0.0055092292 1.4322041303 -0.0055002607 -0.0021395637 1.4296480199 -0.0109628909 -0.0037589513 1.4377420326 -0.0127002291 -0.0042039521 1.4293575989 -0.0032319692 -0.0015215991 1.4348102799 -0.0160971231 -0.0052212310 1