<?xml version="1.0"?>
<VTKFile type="UnstructuredGrid" version="0.1" byte_order="LittleEndian">
  <UnstructuredGrid>
    <FieldData>
      <DataArray type="Float32" Name="TIME"  NumberOfTuples="1" format="ascii"> 0.7500000000 </DataArray>
      <DataArray type="Int32"   Name="STEP"  NumberOfTuples="1" format="ascii"> 75000 </DataArray>
    </FieldData>
    <Piece NumberOfPoints="2004" NumberOfCells="2004">
      <Points>
        <DataArray type="Float32" NumberOfComponents="3" format="ascii">
 0.0288604983 0.9980458392 -0.0427518832 -0.0432589061 0.9969565608 -0.0059314285 0.0035726254 0.9946338110 -0.1131428971 0.0479365386 0.9946717957 0.0236465406 -0.0964484740 0.9978915625 -0.0596420888 0.0860217754 0.9958805231 -0.0990105821 -0.0325314916 0.9889924323 0.0667504131 -0.0587867895 0.9897687115 -0.1513626850 0.1201922288 0.9964600209 0.0024203408 -0.1309733989 0.9958806384 0.0097085913 0.0586895465 0.9859188286 -0.1733580813 0.0419594559 0.9825572843 0.1010033690 -0.1400373337 0.9936391969 -0.1228475381 0.1592954092 0.9972154255 -0.0780399370 -0.1007458103 0.9835923590 0.0957502611 -0.0247350839 0.9765845454 -0.2157401146 0.1361716860 0.9876934194 0.0748405180 -0.1922029077 0.9979846182 -0.0354708436 0.1339742796 0.9849321736 -0.1782709793 -0.0122597879 0.9696578250 0.1517039601 -0.1318334722 0.9808323811 -0.1983189483 0.2059317161 0.9973969341 -0.0142210178 -0.1782902970 0.9868870289 0.0786113749 0.0446337665 0.9665456240 -0.2512188772 0.1058849364 0.9708666897 0.1478255769 -0.2211899159 0.9946953246 -0.1131212493 0.2092336963 0.9913250318 -0.1401604748 -0.0926532524 0.9638469228 0.1703462998 -0.0818132254 0.9624285544 -0.2644057419 0.2147454459 0.9881885361 0.0721596672 -0.2466517242 0.9948823967 0.0207962290 0.1323107107 0.9662789185 -0.2518546874 0.0388913341 0.9524693517 0.2031700554 -0.2084188933 0.9798097367 -0.2029639506 0.2659692921 0.9977334254 -0.0644215651 -0.1839720938 0.9694514254 0.1519872703 -0.0008318905 0.9470097157 -0.3064361757 0.1803718840 0.9673136260 0.1599969633 -0.2871468244 0.9975943363 -0.0699034397 0.2234616808 0.9769381422 -0.2137033805 -0.0530848896 0.9417773630 0.2297083404 -0.1537697296 0.9556281315 -0.2842218133 0.2862136851 0.9932349003 0.0371322166 -0.2707276797 0.9839019376 0.0937986676 0.0992404236 0.9429765195 -0.3160507142 0.1077752176 0.9415934618 0.2305383673 -0.2843466975 0.9853365149 -0.1771680980 0.3010175324 0.9918214700 -0.1356801613 -0.1583987708 0.9452580364 0.2210656067 -0.0660802531 0.9320220273 -0.3414315690 0.2592728999 0.9719850613 0.1442335696 -0.3337354708 0.9962744892 -0.0024264974 0.2067906551 0.9539412281 -0.2879111671 0.0079330890 0.9223152255 0.2721951540 -0.2340076543 0.9576571532 -0.2787528429 0.3440778778 0.9966583361 -0.0242318273 -0.2647340316 0.9630256523 0.1724254477 0.0431567626 0.9198382019 -0.3663540624 0.1878247171 0.9396389843 0.2353114107 -0.3524945007 0.9921051273 -0.1242356412 0.3076543709 0.9756759757 -0.2177443563 -0.1081887754 0.9186556000 0.2791628482 -0.1446728925 0.9251241911 -0.3561873939 0.3360291039 0.9815872861 0.1018630436 -0.3544429022 0.9846456556 0.0807020182 0.1637666216 0.9256615589 -0.3543015565 0.0840726019 0.9097384468 0.2965518959 -0.3169147702 0.9674749735 -0.2481902187 0.3783018427 0.9871780538 -0.1054615800 -0.2307118676 0.9340682428 0.2468822978 -0.0297163526 0.9016848205 -0.4002595378 0.2741804589 0.9472682067 0.2170633323 -0.3985274096 0.9800477817 -0.0477264576 0.2850282046 0.9491260265 -0.3001963428 -0.0393752232 0.8948301830 0.3224589940 -0.2321825684 0.9282300698 -0.3499510874 0.3946498306 0.9716678626 0.0324321566 -0.3460034108 0.9622384829 0.1695497277 0.0999855266 0.8973139931 -0.4074909700 0.1710183978 0.9069642816 0.3018277337 -0.3900177244 0.9671777703 -0.1897337448 0.3839943262 0.9655582869 -0.1970500154 -0.1733449770 0.9018497832 0.3100819742 -0.1148953703 0.8922681289 -0.4165241799 0.3597228407 0.9577630498 0.1731151774 -0.4117730415 0.9419099780 0.0417014648 0.2360996366 0.9155891099 -0.3741241985 0.0431922018 0.8782919643 0.3492502124 -0.3243735849 0.9406421187 -0.3208343804 0.4131955029 0.9143808039 -0.0551474119 -0.3087377877 0.9303495174 0.2540971354 0.0207394696 0.8740791952 -0.4449372102 0.2654804263 0.9152809273 0.2865403445 -0.4185060849 0.9004063123 -0.1042153020 0.3639063926 0.9439120551 -0.2914883261 -0.0982621297 0.8721162713 0.3582596720 -0.2093083496 0.8939303725 -0.4139915178 0.4071950417 0.9030354882 0.0932702033 -0.4057275662 0.9170756211 0.1371764129 0.1664443260 0.8809901945 -0.4339629047 0.1362037806 0.8722560924 0.3586300573 -0.3984981681 0.9196368675 -0.2572443425 0.4124942181 0.8695394150 -0.1472050702 -0.2465998535 0.8923498887 0.3260770020 -0.0700704557 0.8599998316 -0.4657080242 0.3602561196 0.9248789054 0.2453153093 -0.4219636291 0.8341031385 -0.0136940985 0.3148616761 0.9124271179 -0.3780815164 -0.0101991758 0.8497999166 0.3901171871 -0.3102388562 0.9069321077 -0.3904620132 0.4161420244 0.8179088164 0.0007087852 -0.3823629519 0.9115779455 0.2377768773 0.0817339579 0.8512294010 -0.4774709389 0.2375108100 0.8785738960 0.3492829121 -0.4176813939 0.8210605151 -0.1624835342 0.4030609090 0.8580431584 -0.2452214256 -0.1662605450 0.8556607565 0.3817272175 -0.1700987949 0.8577712283 -0.4690908023 0.4033856981 0.8415764112 0.1553800723 -0.4180702809 0.8019583027 0.0791484419 0.2409878476 0.8718861218 -0.4476558080 0.0878187848 0.8384210861 0.4053428029 -0.3911361770 0.8781420248 -0.3262390820 0.4165252025 0.7663885078 -0.0904808844 -0.3264153315 0.8889781978 0.3278081585 -0.0139355660 0.8307868105 -0.5043312728 0.3425585002 0.8910566766 0.3160130580 -0.4224432157 0.7490094063 -0.0700947799 0.3805088706 0.8736321421 -0.3520210229 -0.0732532537 0.8261894994 0.4202983519 -0.2779215519 0.8687164871 -0.4534373045 0.4138207140 0.7489499033 0.0577695498 -0.4072265984 0.8026185524 0.1793064185 0.1513180863 0.8345749959 -0.4991479506 0.1943180108 0.8402231177 0.4032796176 -0.4123083223 0.7677142347 -0.2231263846 0.4112977941 0.7473090363 -0.1844548563 -0.2422015031 0.8464756734 0.3939769372 -0.1184150969 0.8226514447 -0.5145981279 0.3939955371 0.8031077208 0.2214986440 -0.4215978671 0.7104832430 0.0210346757 0.3219294667 0.8677856847 -0.4479229700 0.0290896956 0.8078577129 0.4422608821 -0.3743742981 0.8526563249 -0.3989783806 0.4171664946 0.6920068622 -0.0343828691 -0.3844323163 0.8319957864 0.2912216612 0.0511001062 0.8064782078 -0.5331760708 0.3079455868 0.8546286875 0.3810996941 -0.4204828720 0.6899712938 -0.1270375580 0.3990166252 0.7582348112 -0.2867917229 -0.1443870728 0.8088319713 0.4407140612 -0.2310420689 0.8286814995 -0.5074844465 0.4089483731 0.7033193898 0.1171195579 -0.4151989444 0.7008420371 0.1161094289 0.2286327692 0.8251202892 -0.5107083690 0.1394997666 0.8031629071 0.4478642824 -0.4036182422 0.7358055406 -0.2877480846 0.4152989684 0.6646645549 -0.1260099744 -0.3243351381 0.8415431052 0.3934001645 -0.0571982629 0.7909212632 -0.5507203404 0.3794784923 0.7843249236 0.2934419982 -0.4227701835 0.6444400909 -0.0356343536 0.3746778440 0.7978209742 -0.4027880448 -0.0378555629 0.7823340701 0.4700510827 -0.3452605399 0.8341565232 -0.4725314467 0.4157793244 0.6395433373 0.0219612889 -0.4012934172 0.7188706115 0.2208994026 0.1237154019 0.7883823626 -0.5529978330 0.2580421144 0.8135661437 0.4360065032 -0.4163146340 0.6503453626 -0.1857650107 0.4076857036 0.6634551199 -0.2224925156 -0.2229884750 0.7987021988 0.4519414678 -0.1731819893 0.7899826076 -0.5520245253 0.4012313886 0.6755656640 0.1801492914 -0.4198915883 0.6252174204 0.0563872598 0.3120824829 0.8196375019 -0.5100638314 0.0758533342 0.7697150745 0.4832933414 -0.3907649804 0.7210135362 -0.3579315452 0.4170711034 0.6041010767 -0.0693507887 -0.3745846186 0.7648402984 0.3411430930 0.0116022613 0.7642812077 -0.5781051723 0.3575438789 0.7801956799 0.3718105990 -0.4219807704 0.5971298257 -0.0920506868 0.3919674859 0.6882779363 -0.3297652962 -0.1118831799 0.7630836052 0.4894305997 -0.2970379786 0.8032927962 -0.5346118660 0.4123061668 0.6035573857 0.0797837992 -0.4109846771 0.6300267923 0.1544730970 0.2034914625 0.7774371551 -0.5643102493 0.1971992913 0.7727196705 0.4805535803 -0.4095328385 0.6258876632 -0.2476478397 0.4131550978 0.5924324163 -0.1621644698 -0.3078656744 0.7930710560 0.4519019454 -0.1071219682 0.7550254575 -0.5874398766 0.3897965380 0.6623868527 0.2483716835 -0.4222965373 0.5691391763 -0.0010142495 0.3623077928 0.7403664288 -0.4537726054 0.0052221485 0.7415124051 0.5102770991 -0.3720376961 0.7204612349 -0.4351332113 0.4168772803 0.5599784543 -0.0132405662 -0.3932531855 0.6595557384 0.2647161405 0.0869850670 0.7438947503 -0.5974831247 0.3212077777 0.7770350269 0.4500266029 -0.4191758119 0.5641892401 -0.1494713527 0.4028571470 0.6032675858 -0.2620252721 -0.1927230663 0.7509886693 0.5009225954 -0.2337363852 0.7620918114 -0.5808219755 0.4063926088 0.5807196552 0.1404036626 -0.4173033219 0.5629386992 0.0926649364 0.2897913443 0.7718423943 -0.5655036987 0.1286957122 0.7357429710 0.5158563195 -0.3993695268 0.6140964806 -0.3141755012 0.4162185602 0.5391224946 -0.1044853792 -0.3601338642 0.7154807986 0.3930922443 -0.0346554276 0.7253958405 -0.6145291377 0.3731938564 0.6617951971 0.3233477413 -0.4227006890 0.5278249102 -0.0573967182 0.3828918684 0.6379458098 -0.3751715931 -0.0714828326 0.7196388407 0.5296109253 -0.3441791016 0.7304885878 -0.5193978187 0.4147133222 0.5286615719 0.0435558684 -0.4054988857 0.5780094048 0.1946370885 0.1687925068 0.7305831770 -0.6094160401 0.2604082567 0.7465210616 0.5051952761 -0.4140706478 0.5429061105 -0.2092038770 0.4100954075 0.5385214190 -0.1992987548 -0.2802847598 0.7452553675 0.5035683828 -0.1627293291 0.7233567385 -0.6166405303 0.3973810394 0.5690378366 0.2052593182 -0.4210603865 0.5121855702 0.0340273117 0.3458074880 0.6983047675 -0.5073991285 0.0543532888 0.7042807483 0.5429084837 -0.3845713887 0.6135001304 -0.3869276466 0.4172243757 0.4993391718 -0.0481449555 -0.3830468885 0.6161245737 0.3112837822 0.0433644025 0.7021056283 -0.6341675716 0.3490902242 0.6721838230 0.4062928361 -0.42115890
[...]
      <PointData Scalars="material ID">
        <DataArray type="Int32" Name="material ID" format="ascii">
 0 0 0 0 0 0 0 0 0 0 0 0 0 0 0 0 0 0 0 0 0 0 0 0 0 0 0 0 0 0 0 0 0 0 0 0 0 0 0 0 0 0 0 0 0 0 0 0 0 0 0 0 0 0 0 0 0 0 0 0 0 0 0 0 0 0 0 0 0 0 0 0 0 0 0 0 0 0 0 0 0 0 0 0 0 0 0 0 0 0 0 0 0 0 0 0 0 0 0 0 0 0 0 0 0 0 0 0 0 0 0 0 0 0 0 0 0 0 0 0 0 0 0 0 0 0 0 0 0 0 0 0 0 0 0 0 0 0 0 0 0 0 0 0 0 0 0 0 0 0 0 0 0 0 0 0 0 0 0 0 0 0 0 0 0 0 0 0 0 0 0 0 0 0 0 0 0 0 0 0 0 0 0 0 0 0 0 0 0 0 0 0 0 0 0 0 0 0 0 0 0 0 0 0 0 0 0 0 0 0 0 0 0 0 0 0 0 0 0 0 0 0 0 0 0 0 0 0 0 0 0 0 0 0 0 0 0 0 0 0 0 0 0 0 0 0 0 0 0 0 0 0 0 0 0 0 0 0 0 0 0 0 0 0 0 0 0 0 0 0 0 0 0 0 0 0 0 0 0 0 0 0 0 0 0 0 0 0 0 0 0 0 0 0 0 0 0 0 0 0 0 0 0 0 0 0 0 0 0 0 0 0 0 0 0 0 0 0 0 0 0 0 0 0 0 0 0 0 0 0 0 0 0 0 0 0 0 0 0 0 0 0 0 0 0 0 0 0 0 0 0 0 0 0 0 0 0 0 0 0 0 0 0 0 0 0 0 0 0 0 0 0 0 0 0 0 0 0 0 0 0 0 0 0 0 0 0 0 0 0 0 0 0 0 0 0 0 0 0 0 0 0 0 0 0 0 0 0 0 0 0 0 0 0 0 0 0 0 0 0 0 0 0 0 0 0 0 0 0 0 0 0 0 0 0 0 0 0 0 0 0 0 0 0 0 0 0 0 0 0 0 0 0 0 0 0 0 0 0 0 0 0 0 0 0 0 0 0 0 0 0 0 0 0 0 0 0 0 0 0 0 0 0 0 0 0 0 0 0 0 0 0 0 0 0 0 0 0 0 0 0 0 0 0 0 0 0 0 0 0 0 0 0 0 0 0 0 0 0 0 0 0 0 0 0 0 0 0 0 0 0 0 0 0 0 0 0 0 0 0 0 0 0 0 0 0 0 0 0 0 0 0 0 0 0 0 0 0 0 0 0 0 0 0 0 0 0 0 0 0 0 0 0 0 0 0 0 0 0 0 0 0 0 0 0 0 0 0 0 0 0 0 0 0 0 0 0 0 0 0 0 0 0 0 0 0 0 0 0 0 0 0 0 0 0 0 0 0 0 0 0 0 0 0 0 0 0 0 0 0 0 0 0 0 0 0 0 0 0 0 0 0 0 0 0 0 0 0 0 0 0 0 0 0 0 0 0 0 0 0 0 0 0 0 0 0 0 0 0 0 0 0 0 0 0 0 0 0 0 0 0 0 0 0 0 0 0 0 0 0 0 0 0 0 0 0 0 0 0 0 0 0 0 0 0 0 0 0 0 0 0 0 0 0 0 0 0 0 0 0 0 0 0 0 0 0 0 0 0 0 0 0 0 0 0 0 0 0 0 0 0 0 0 0 0 0 0 0 0 0 0 0 0 0 0 0 0 0 0 0 0 0 0 0 0 0 0 0 0 0 0 0 0 0 0 0 0 0 0 0 0 0 0 0 0 0 0 0 0 0 0 0 0 0 0 0 0 0 0 0 0 0 0 0 0 0 0 0 0 0 0 0 0 0 0 0 0 0 0 0 0 0 0 0 0 0 0 0 0 0 0 0 0 0 0 0 0 0 0 0 0 0 0 0 0 0 0 0 0 0 0 0 0 0 0 0 0 0 0 0 0 0 0 0 0 0 0 0 0 0 0 0 0 0 0 0 0 0 0 0 0 0 0 0 0 0 0 0 0 0 0 0 0 0 0 0 0 0 0 0 0 0 0 0 0 0 0 0 0 0 0 0 0 0 0 0 0 0 0 0 0 0 0 0 0 0 0 0 0 0 0 0 0 0 0 0 0 0 0 0 0 0 0 0 0 0 0 0 0 0 0 0 0 0 0 0 0 0 0 0 0 0 0 0 0 0 0 0 0 0 0 0 0 0 0 0 0 0 0 0 0 0 0 0 0 0 0 0 0 0 0 0 0 0 0 0 0 0 0 0 0 0 0 0 0 0 0 0 0 0 0 0 0 0 0 0 0 0 0 0 0 0 0 0 0 0 0 0 0 0 0 0 0 0 0 0 0 0 0 0 0 0 0 0 0 0 0 0 0 0 0 0 0 0 0 0 0 0 0 0 0 0 0 0 0 0 0 0 0 0 0 0 0 0 0 0 0 0 0 0 0 0 0 0 0 0 0 0 0 0 0 0 0 0 0 0 0 0 0 0 0 0 0 0 0 0 0 0 0 0 0 0 0 0 0 0 0 0 0 0 0 0 0 0 0 0 0 0 0 0 0 0 0 0 0 0 0 0 0 0 0 0 0 0 0 0 0 0 0 0 0 0 0 0 0 0 0 0 0 0 0 0 0 0 0 0 0 0 0 0 0 0 0 0 0 0 0 0 0 0 0 0 0 0 0 0 0 0 0 0 0 0 0 0 0 0 0 0 0 0 0 0 0 0 0 0 0 0 0 0 0 0 0 0 0 0 0 0 0 0 0 0 0 0 0 0 0 0 0 0 0 0 0 0 0 0 0 0 0 0 0 0 0 0 0 0 0 0 0 0 0 0 0 0 0 0 0 0 0 0 0 0 0 0 0 0 0 0 0 0 0 0 0 0 0 0 0 0 0 0 0 0 0 0 0 0 0 0 0 0 0 0 0 0 0 0 0 0 0 0 0 0 0 0 0 0 0 0 0 0 0 0 0 0 0 0 0 0 0 0 0 0 0 0 0 0 0 0 0 0 0 0 0 0 0 0 0 0 0 0 0 0 0 0 0 0 0 0 0 0 0 0 0 0 0 0 0 0 0 0 0 0 0 0 0 0 0 0 0 0 0 0 0 0 0 0 0 0 0 0 0 0 0 0 0 0 0 0 0 0 0 0 0 0 0 0 0 0 0 0 0 0 0 0 0 0 0 0 0 0 0 0 0 0 0 0 0 0 0 0 0 0 0 0 0 0 0 0 0 0 0 0 0 0 0 0 0 0 0 0 0 0 0 0 0 0 0 0 0 0 0 0 0 0 0 0 0 0 0 0 0 0 0 0 0 0 0 0 0 0 0 0 0 0 0 0 0 0 0 0 0 0 0 0 0 0 0 0 0 0 0 0 0 0 0 0 0 0 0 0 0 0 0 0 0 0 0 0 0 0 0 0 0 0 0 0 0 0 0 0 0 0 0 0 0 0 0 0 0 0 0 0 0 0 0 0 0 0 0 0 0 0 0 0 0 0 0 0 0 0 0 0 0 0 0 0 0 0 0 0 0 0 0 0 0 0 0 0 0 0 0 0 0 0 0 0 0 0 0 0 0 0 0 0 0 0 0 0 0 0 0 0 0 0 0 0 0 0 0 0 0 0 0 0 0 0 0 0 0 0 0 0 0 0 0 0 0 0 0 0 0 0 0 0 0 0 0 0 0 0 0 0 0 0 0 0 0 0 0 0 0 0 0 0 0 0 0 0 0 0 0 0 0 0 0 0 0 0 0 0 0 0 0 0 0 0 0 0 0 0 0 0 0 0 0 0 0 0 0 0 0 0 0 0 0 0 0 0 0 0 0 0 0 0 0 0 0 0 0 0 0 0 0 0 0 0 0 0 0 0 0 0 0 0 0 0 0 0 0 0 0 0 0 0 0 0 0 0 0 0 0 0 0 0 0 0 0 0 0 0 0 0 0 0 0 0 0 0 0 0 0 0 0 0 0 0 0 0 0 0 0 0 0 0 0 0 0 0 0 0 0 0 0 0 0 0 0 0 0 0 0 0 0 0 0 0 0 0 0 0 0 0 0 0 0 0 0 0 0 0 0 0 0 0 0 0 0 0 0 0 0 0 0 0 0 0 0 0 0 0 0 0 0 0 0 0 0 0 0 0 0 0 0 0 0 0 0 0 0 0 0 0 0 0 0 0 0 0 0 0 0 0 0 0 0 0 0 0 0 0 0 0 0 0 0 0 0 0 0 0 0 0 0 0 0 0 0 0 0 0 0 0 0 0 0 0 0 0 0 0 0 0 0 0 0 0 0 0 0 0 0 0 0 0 0 0 0 0 0 0 0 0 0 0 0 0 0 0 0 0 0 0 0 0 0 0 0 0 0 0 0 0 0 0 0 0 0 0 0 0 0 0 0 0 0 0 0 0 0 0 0 0 0 0 0 0 0 0 0 0 0 0 0 0 0 0 0 0 0 0 0 0 0 0 0 0 0 0 0 0 0 0 0 0 0 0 0 0 0 0 0 0 0 0 0 0 0 0 0 0 0 0 0 0
        </DataArray>
        <DataArray type="Float32" Name="velocity" NumberOfComponents="3" format="ascii">
 -0.0101983775 -0.0034981729 0.9407669198 -0.0098260918 -0.0033960136 0.9414991298 -0.0109097348 -0.0037040148 0.9410324516 -0.0095269426 -0.0033043150 0.9405838698 -0.0103691094 -0.0035552673 0.9420341068 -0.0107669528 -0.0036576900 0.9401953623 -0.0090908418 -0.0031844665 0.9414137915 -0.0112957816 -0.0038189210 0.9416769524 -0.0097416323 -0.0033612257 0.9398482544 -0.0096679184 -0.0033563074 0.9423889506 -0.0115178828 -0.0038751419 0.9405005612 -0.0087441654 -0.0030802846 0.9406794366 -0.0110077741 -0.0037414458 0.9424870798 -0.0105550482 -0.0035921195 0.9394507717 -0.0087973355 -0.0031047429 0.9421190311 -0.0119457167 -0.0040034839 0.9413709741 -0.0090089755 -0.0031500984 0.9397121517 -0.0101247700 -0.0034913309 0.9430018116 -0.0115674832 -0.0038845311 0.9397423756 -0.0082308034 -0.0029367019 0.9412649571 -0.0117698818 -0.0039598626 0.9424413009 -0.0099099191 -0.0034039645 0.9389788021 -0.0089708041 -0.0031594732 0.9428933647 -0.0123037205 -0.0041019285 0.9406988529 -0.0082700878 -0.0029403211 0.9400671335 -0.0109095199 -0.0037184717 0.9433043816 -0.0111826398 -0.0037691086 0.9389630375 -0.0080419739 -0.0028878128 0.9420945066 -0.0124367596 -0.0041483529 0.9419890403 -0.0090361081 -0.0031527998 0.9389164188 -0.0095557698 -0.0033316144 0.9435612305 -0.0123101306 -0.0040981091 0.9398133067 -0.0077094260 -0.0027840915 0.9407977388 -0.0118167718 -0.0039782855 0.9432184642 -0.0104174146 -0.0035457207 0.9383709103 -0.0082279261 -0.0029469726 0.9430013833 -0.0128606462 -0.0042650541 0.9412151367 -0.0081468186 -0.0029001994 0.9393244579 -0.0104728215 -0.0035973552 0.9439627251 -0.0119251504 -0.0039815417 0.9388609450 -0.0074404616 -0.0027130441 0.9417585379 -0.0126366395 -0.0042104888 0.9427361719 -0.0093905240 -0.0032497996 0.9381793117 -0.0088170840 -0.0031213855 0.9438364675 -0.0129575783 -0.0042864818 0.9402152134 -0.0074320591 -0.0027002445 0.9401329481 -0.0115563604 -0.0039083552 0.9439699794 -0.0111373807 -0.0037501818 0.9380337611 -0.0075280553 -0.0027449204 0.9428130508 -0.0132134439 -0.0043707928 0.9419182079 -0.0083064714 -0.0029408329 0.9385133011 -0.0097906166 -0.0034046104 0.9444375153 -0.0126738260 -0.0041978996 0.9390961866 -0.0070097082 -0.0025858456 0.9411981723 -0.0125814852 -0.0041998064 0.9435414050 -0.0100110699 -0.0034240821 0.9375844351 -0.0080209029 -0.0028928975 0.9438364415 -0.0134645965 -0.0044360376 0.9408492847 -0.0073836825 -0.0026812265 0.9393294035 -0.0110217072 -0.0037591975 0.9446392446 -0.0119659188 -0.0039878259 0.9380135087 -0.0069390359 -0.0025731334 0.9423826567 -0.0133621639 -0.0044186774 0.9427327063 -0.0087354123 -0.0030587937 0.9377095216 -0.0089495252 -0.0031647876 0.9446805812 -0.0133431348 -0.0043932812 0.9396131544 -0.0067626752 -0.0025102667 0.9404649694 -0.0122731640 -0.0041164983 0.9443510251 -0.0108316033 -0.0036575234 0.9372659703 -0.0072663533 -0.0026746962 0.9435765209 -0.0138061719 -0.0045391069 0.9416386178 -0.0075686438 -0.0027285866 0.9384343067 -0.0102475024 -0.0035402137 0.9451395670 -0.0127977049 -0.0042284854 0.9383192579 -0.0064998191 -0.0024430835 0.9417561443 -0.0132993222 -0.0044062386 0.9436083250 -0.0094366434 -0.0032564298 0.9371457056 -0.0080499225 -0.0029064902 0.9446602714 -0.0138789915 -0.0045517070 0.9403401508 -0.0067091629 -0.0024893445 0.9395940885 -0.0116822125 -0.0039516352 0.9450908798 -0.0117560676 -0.0039228589 0.9372711456 -0.0066253910 -0.0024876444 0.9430900707 -0.0139699816 -0.0045917942 0.9425270047 -0.0080135905 -0.0028505566 0.9375391187 -0.0093410183 -0.0032816339 0.9453841060 -0.0135428698 -0.0044461151 0.9389111658 -0.0062279202 -0.0023600268 0.9409694544 -0.0130057853 -0.0043277249 0.9445042693 -0.0103182782 -0.0035093050 0.9371244218 -0.0071931788 -0.0026588060 0.9443760676 -0.0142560319 -0.0046654600 0.9412086490 -0.0068642393 -0.0025275919 0.9386150516 -0.0108133993 -0.0037053817 0.9455725744 -0.0127093393 -0.0041981274 0.9375370100 -0.0061364453 -0.0023430278 0.9424173222 -0.0139444865 -0.0045905459 0.9434765965 -0.0088172023 -0.0030791247 0.9372179934 -0.0083742645 -0.0030042652 0.9453950386 -0.0141455399 -0.0046242103 0.9397156798 -0.0061327101 -0.0023268068 0.9400467174 -0.0123616012 -0.0041480351 0.9453145269 -0.0112459858 -0.0037764148 0.9372615984 -0.0064630847 -0.0024459742 0.9438581587 -0.0144650931 -0.0047315836 0.9421674850 -0.0072816003 -0.0026410655 0.9376291266 -0.0098940437 -0.0034429979 0.9457998757 -0.0135826698 -0.0044525075 0.9381241391 -0.0058129583 -0.0022449185 0.9415918411 -0.0137074684 -0.0045288055 0.9444591770 -0.0097473998 -0.0033470727 0.9373745063 -0.0073569465 -0.0027109082 0.9451747965 -0.0145834370 -0.0047559019 0.9406583486 -0.0062276079 -0.0023473790 0.9390042836 -0.0113973029 -0.0038743679 0.9457944243 -0.0122360834 -0.0040613752 0.9373903103 -0.0058981505 -0.0022793398 0.9431524517 -0.0144991454 -0.0047478591 0.9431851297 -0.0081853678 -0.0028991865 0.9374347980 -0.0089534286 -0.0031734049 0.9458537721 -0.0142833724 -0.0046591187 0.9389885361 -0.0056583086 -0.0021944162 0.9406339952 -0.0130563835 -0.0043477172 0.9453604839 -0.0106659015 -0.0036115943 0.9375200961 -0.0064453668 -0.0024461081 0.9446747892 -0.0148536456 -0.0048400055 0.9416847701 -0.0065647369 -0.0024371106 0.9379061508 -0.0104586971 -0.0036066505 0.9460515856 -0.0133167200 -0.0043726637 0.9375730628 -0.0055063339 -0.0021614345 0.9422977454 -0.0143416123 -0.0047094127 0.9442433494 -0.0091661219 -0.0031816861 0.9375980260 -0.0079409814 -0.0028821405 0.9457422387 -0.0148014924 -0.0048142930 0.9400032430 -0.0056792816 -0.0021935217 0.9395521743 -0.0120068910 -0.0040499491 0.9458948689 -0.0116146451 -0.0038845558 0.9376282902 -0.0057737256 -0.0022487085 0.9439467798 -0.0149569069 -0.0048765396 0.9427645473 -0.0075144948 -0.0027079794 0.9376413224 -0.0095349872 -0.0033422241 0.9461548066 -0.0142858082 -0.0046546649 0.9381821987 -0.0052831320 -0.0020911086 0.9413163494 -0.0137900535 -0.0045576552 0.9452649747 -0.0100940056 -0.0034488093 0.9377293987 -0.0068115360 -0.0025559955 0.9454265879 -0.0151436652 -0.0049194846 0.9410978498 -0.0059044275 -0.0022505266 0.9383617299 -0.0110305137 -0.0037717181 0.9462030415 -0.0126498670 -0.0041822342 0.9377207434 -0.0052988316 -0.0021068026 0.9430671873 -0.0148853848 -0.0048631781 0.9438855918 -0.0085632092 -0.0030098231 0.9377796568 -0.0085732605 -0.0030659935 0.9461180900 -0.0149177451 -0.0048428359 0.9392491030 -0.0052261843 -0.0020677203 0.9402138418 -0.0126580858 -0.0042368589 0.9458995904 -0.0110184911 -0.0037147454 0.9378275990 -0.0057792376 -0.0022556876 0.9447913725 -0.0153200140 -0.0049773776 0.9422377618 -0.0067860112 -0.0025002055 0.9378425641 -0.0101035839 -0.0035066999 0.9463582524 -0.0138250227 -0.0045203184 0.9378519407 -0.0050005540 -0.0020148123 0.9420671398 -0.0145324011 -0.0047691560 0.9450243348 -0.0095210374 -0.0032854414 0.9378956212 -0.0075151108 -0.0027610936 0.9459252181 -0.0153428730 -0.0049722977 0.9404162840 -0.0053467258 -0.0020944626 0.9389853253 -0.0116216255 -0.0039418205 0.9462758621 -0.0119937481 -0.0039951385 0.9379080695 -0.0051846802 -0.0020793090 0.9438911503 -0.0153331373 -0.0049886537 0.9434129561 -0.0079242532 -0.0028274688 0.9379381824 -0.0091721022 -0.0032395541 0.9463849189 -0.0149108753 -0.0048355752 0.9384214217 -0.0048658738 -0.0019690502 0.9409542731 -0.0133666098 -0.0044396348 0.9458125702 -0.0104418151 -0.0035502594 0.9379853827 -0.0063025455 -0.0024105344 0.9455218601 -0.0155951244 -0.0050523780 0.9416195465 -0.0059935219 -0.0022742707 0.9380762787 -0.0106708364 -0.0036703159 0.9464875220 -0.0130797645 -0.0043073584 0.9379949515 -0.0048034043 -0.0019633735 0.9428713263 -0.0151579738 -0.0049461397 0.9446263938 -0.0089341891 -0.0031179194 0.9380351283 -0.0081808702 -0.0029544261 0.9462809273 -0.0154565223 -0.0049999621 0.9396415862 -0.0048937639 -0.0019691594 0.9397188790 -0.0122456146 -0.0041209079 0.9462782586 -0.0113793081 -0.0038197701 0.9380588207 -0.0051847159 -0.0020849067 0.9447655041 -0.0156888903 -0.0050871281 0.9428465727 -0.0072337466 -0.0026302905 0.9380920089 -0.0097487473 -0.0034062345 0.9465719165 -0.0143367104 -0.0046690266 0.9381436675 -0.0045912750 -0.0018953316 0.9417500962 -0.0141470003 -0.0046623914 0.9456248596 -0.0098717505 -0.0033874930 0.9381153442 -0.0070683388 -0.0026334593 0.9460160158 -0.0157896977 -0.0051037248 0.9409166494 -0.0052026377 -0.0020497090 0.9384527670 -0.0112491698 -0.0038367153 0.9465547294 -0.0123894938 -0.0041101372 0.9381314885 -0.0046864512 -0.0019352568 0.9437236191 -0.0156224469 -0.0050761085 0.9441060089 -0.0083199119 -0.0029424397 0.9381611616 -0.0088013506 -0.0031341433 0.9465394284 -0.0154682254 -0.0049978494 0.9387854176 -0.0045345024 -0.0018711695 0.9405186483 -0.0129173763 -0.0043132519 0.9462097253 -0.0107927905 -0.0036522419 0.9381825075 -0.0057742067 -0.0022588935 0.9455189732 -0.0159608196 -0.0051610343 0.9421999709 -0.0064757808 -0.0024138532 0.9382615607 -0.0103160448 -0.0035698293 0.9466958571 -0.0135355221 -0.0044396709 0.9382327126 -0.0043944177 -0.0018441982 0.9425889578 -0.0149994729 -0.0049050482 0.9453141492 -0.0092955763 -0.0032228631 0.9382280716 -0.0077714950 -0.0028375537 0.9463763772 -0.0159094668 -0.0051330581 0.9401282815 -0.0046429703 -0.0018935892 0.9391559077 -0.0118516267 -0.0040096730 0.9465648652 -0.0117512133 -0.0039276965 0.9382461498 -0.0046593347 -0.0019332377 0.9446254066 -0.0159820318 -0.0051754331 0.9435005763 -0.0076635361 -0.0027548719 0.9382861485 -0.0093908355 -0.0033044971 0.9467246460 -0.0148760999 -0.0048256661 0.9384324912 -0.0042590015 -0.0017974922 0.9413614442 -0.0136527840 -0.0045233540 0.9460618621 -0.0102206792 -0.0034887302 0.9382877535 -0.0065947841 -0.0024977047 0.9460388373 -0.0161578386 -0.0052129664 0.9414788402 -0.0056379658 -0.0021747819 0.9384750846 -0.0108864904 -0.0037339863 0.9467663835 -0.0128054380 -0.0042307390 0.9383246260 -0.0042689463 -0.0018138075 0.9434679407 -0.0157850259 -0.0051274227 0.9448348081 -0.0087002814 -0.0030526927 0.9383324603 -0.0084191142 -0.0030250978 0.9466409172 -0.0159509268 -0.0051393521 0.9392513109 -0.0042709824 -0.0017923290 0.9400154489 -0.0124923453 -0.0041932409 0.9465170923 -0.0111496309 -0.0037556806 0.9383441194 -0.0052168480 -0.0020984138 0.9454361764 -0.0162576535 -0.0052502167 0.9428254713 -0.0069492647 -0.0025507742 0.9384244212 -0.0099628754 -0.0034694732 0.9468517685 -0.0140210667 -0.0045804442 0.9384567775 -0.0040573546 -0.0017452140 0.9422362527 -0.0144665179 -0.0047553184 0.9458176430 -0.0096501609 -0.0033256021 0.9383814990 -0.0073410710 -0.0027143104 0.9464201252 -0.0162872057 -0.0052449961 0.9406813944 -0.0047382011 -0.0019185857 0.9387908668 -0.0114727604 -0.0039023713 0.9467878925 -0.0121373581 -0.0040395484 0.9384083037 -0.0042140407 -0.0018039550 0.9443918745 -0.0162140178 -0.0052464530 0.9441960967 -0.0080719785 -0.0028730530 0.9384373703 -0.0090265684 -0.0032006534 0.9468331908 -0.0154449577 -0.0049908663 0.9387375841 -0.0039889720 -0.0017171115 0.9409095531 -0.0131867387 -0.0043917997 0.9464047417 -0.0105705515 -0.0035900472 0.9384302725 -0.0060907426 -0.0023528280 0.9460033130 -0.0164607516 -0.0053037789 0.9420864113 -0.0061614860 -0.0023257911 0.9385955086 -0.0105302267 -0.0036327918 0.9469300566 -0.0132452386 -0.0043581002 0.9385041725 -0.0039213835 -0.0017119789 0.9431416506 -0.0153638767 -0.0050104922 0.9454499176 -0.0090685194 -0.0031592484 0.9384700007 -0.0080217440 -0.0029114450 0.9467010659 -0.0163523491 -0.0052580531 0.9397991536 -0.0040748288 -0.0017324529 0.9394545984 -0.0120883040 -0.0040788432 0.9467602628 -0.0115152719 -0.0038615066 0.9384840856 -0.0046339584 -0.0019301225 0.9452775169 -0.0164986298 -0.0053236144 0.9434893440 -0.0073955533 -0.0026796738 0.9385533423 -0.0096081887 -0.0033684328 0.9469687404 -0.0145391459 -0.0047305792 0.9386847537 -0.0037798277 -0.0016629326 0.9418236167 -0.0139507129 -0.0046098280 0.9462143491 -0.0100008230 -0.0034270501 0.9385090428 -0.0068856192 -0.0025836001 0.9464193679 -0.0166006080 -0.0053387707 0.9412814408 -0.0052895464 -0.0020770530 0.9388287978 -0.0111054195 -0.0037980791 0.9469642800 -0.0125411784 -0.0041563895 0.9385574219 -0.0038461340 -0.0016964067 0.9440841330 -0.0162642731 -0.0052654667 0.9449145918 -0.0084624998 -0.0029859070 0.9385597994 -0.0086526305 -0.0030938124 0.9469069700 -0.0160325643 -0.0051617109 0.9390839436 -0.0037697370 -0.0016509258 0.9403978995 -0.0127477798 -0.0042675785 0.9466787641 -0.0109242011 -0.0036923261 0.9385536797 -0.0055539677 -0.0021981995 0.9459117745 -0.0167098639 -0.0053793805 0.9427298018 -0.0066550189 -0.0024680597 0.9386948344 -0.0101772081 -0.0035322967 0.9470574452 -0.0137125679 -0.0044933542 0.9386825721 -0.0036331350 -0.0016268005 0.9427571633 -0.0147973606 -0.0048509434 0.9459240303 -0.0094277740 -0.0032630809 0.9385848158 -0.0076054661 -0.0027921402 0.9467258612 -0.0166833836 -0.0053569020 0.9404014206 -0.0043454954 -0.0018083336 0.9391736916 -0.0117013817 -0.0039690511 0.9469553638 -0.0118928662 -0.0039706836 0.9386116465 -0.0040478305 -0.0017603963 0.9450397503 -0.0166932320 -0.0053839398 0.9441901613 -0.0078177820 -0.0028015190 0.9386588369 -0.0092488728 -0.0032658671 0.9470549042 -0.0150907085 -0.0048904488 0.9389323629 -0.0035513781 -0.0015943896 0.9413568865 -0.0134669848 -0.0044730456 0.9465332231 -0.0103504315 -0.0035280860 0.9386194217 -0.0064014055 -0.0024443659 0.9463763690 -0.0168599844 -0.0054172606 0.9419158515 -0.0058357528 -0.0022341527 0.9388835015 -0.0107462477 -0.0036959029 0.9471049256 -0.0129663365 -0.0042793289 0.9387025892 -0.0035416667 -0.0016066893 0.9437177257 -0.0157273037 -0.0051151224 0.9455021806 -0.0088385732 -0.0030944884 0.9386624460 -0.0082655837 -0.0029830211 0.9469513040 -0.0165922976 -0.0053250832 0.9395127528 -0.0036091517 -0.0016012532 0.9398364548 -0.0123320035 -0.0041496755 0.9469004016 -0.0112845782 -0.0037964603 0.9386653163 -0.0049847999 -0.0020339027 0.9457619801 -0.0169147257 -0.0054424853 0.9434048183 -0.0071188219 -0.0026016932 0.9387780089 -0.0098243705 -0.0034316695 0.9471560297 -0.0142107305 -0.0046375195 0.9388707817 -0.0033944001 -0.0015555111 0.9423225518 -0.0142613776 -0.0046995712 0.9463064757 -0.0097810882 -0.0033651096 0.9386841451 -0.0071664001 -0.0026660855 0.9467177848 -0.0169573265 -0.0054395900 0.9410386278 -0.0049313337 -0.0019763244 0.9391529003 -0.0113279317 -0.0038628877 0.9471132736 -0.0122857902 -0.0040842250 0.9387337322 -0.0035470126 -0.0016145952 0.9447148073 -0.0166736849 -0.0053829042 0.9449059236 -0.0082196210 -0.0029174082 0.9387479736 -0.0088817585 -0.0031608984 0.9471152404 -0.0156732341 -0.0050594316 0.9392155841 -0.0033633375 -0.0015371102 0.9408380646 -0.0130124437 -0.0043442556 0.9467920557 -0.0107018678 -0.0036295753 0.9387186742 -0.0058854196 -0.0022957362 0.9462899598 -0.0170745780 -0.0054830738 0.9425776612 -0.0063497288 -0.0023819731 0.9389335356 -0.0103920720 -0.0035949788 0.9472171462 -0.0134166055 -0.0044094996 0.9388516643 -0.0032893450 -0.0015316296 0.9433032751 -0.0151410812 -0.0049498936 0.9459724461 -0.0092035281 -0.0031997911 0.9387513411 -0.0078618215 -0.0028672620 0.9469689004 -0.0169955542 -0.0054444882 0.9400883884 -0.0039623870 -0.0017008273 0.9395552062 -0.0119355070 -0.0040370447 0.9470812312 -0.0116547829 -0.0039033749 0.9387706911 -0.0043882958 -0.0018613545 0.9455485906 -0.0170828753 -0.0054952574 0.9441115951 -0.0075561208 -0.0027276473 0.9388497009 -0.0094686777 -0.0033300701 0.9472306980 -0.0147419550 -0.0047913064 0.9390798896 -0.0031965700 -0.0014956681 0.9418421804 -0.0137586761 -0.0045572924 0.9466172926 -0.0101314217 -0.0034662165 0.9387730677 -0.0067006960 -0.0025321759 0.9466767876 -0.0171840209 -0.0055088750 0.9417002899 -0.0054978107 -0.0021388769 0.9391505748 -0.0109645364 -0.0037594207 0.9472415904 -0.0126976379 -0.0042031996 0.9388562151 -0.0032321267 -0.0015216685 0.9443140701 -0.0160978915 -0.0052214307 0