<?xml version="1.0"?>
<VTKFile type="UnstructuredGrid" version="0.1" byte_order="LittleEndian">
  <UnstructuredGrid>
    <FieldData>
      <DataArray type="Float32" Name="TIME"  NumberOfTuples="1" format="ascii"> 0.2000000000 </DataArray>
      <DataArray type="Int32"   Name="STEP"  NumberOfTuples="1" format="ascii"> 20000 </DataArray>
    </FieldData>
    <Piece NumberOfPoints="22" NumberOfCells="22">
      <Points>
        <DataArray type="Float32" NumberOfComponents="3" format="ascii">
 -0.0253321379 0.2220758390 -1.0019900675 0.0834446011 0.2048434278 -1.0031582489 -0.0926355048 0.1929941849 -1.0020613994 0.0161774160 0.1751263943 -1.0059393302 -0.0516802915 0.1466556025 -1.0078526184 0.0583465103 0.1288418431 -1.0082473131 -0.0097276116 0.1002573920 -1.0102620418 0.0988779940 0.0812766630 -1.0006895186 -0.0772750729 0.0711604420 -1.0052670269 0.0325438238 0.0543690793 -1.0111054649 -0.0358729452 0.0260957172 -1.0108359968 0.0740532265 0.0086228655 -1.0058524265 0.0064184399 -0.0194983790 -1.0122741808 -0.0616296820 -0.0474107989 -1.0078604004 0.0485498725 -0.0650223111 -1.0095721436 -0.0197029542 -0.0935769095 -1.0105323850 0.0894887568 -0.1098931877 -1.0028253746 -0.0868125370 -0.1209429907 -1.0033907334 0.0223992893 -0.1396777423 -1.0082850284 -0.0453800141 -0.1685540605 -1.0064158979 0.0640032465 -0.1866519077 -1.0050473890 -0.0035060882 -0.2151010506 -1.0026391118
        </DataArray>
      </Points>
      <Cells>
        <DataArray type="Int32" Name="connectivity" format="ascii">
 0 1 2 3 4 5 6 7 8 9 10 11 12 13 14 15 16 17 18 19 20 21
        </DataArray>
        <DataArray type="Int32" Name="offsets" format="ascii">
 1 2 3 4 5 6 7 8 9 10 11 12 13 14 15 16 17 18 19 20 21 22
        </DataArray>
        <DataArray type="UInt8" Name="types" format="ascii">
 1 1 1 1 1 1 1 1 1 1 1 1 1 1 1 1 1 1 1 1 1 1
        </DataArray>
      </Cells>
      <PointData Scalars="overlap">
        <DataArray type="Float32" Name="overlap" format="ascii">
 0.0039801349 0.0063164978 0.0041227987 0.0118786604 0.0157052369 0.0164946263 0.0205240836 0.0013790371 0.0105340538 0.0222109299 0.0216719936 0.0117048531 0.0245483616 0.0157208009 0.0191442872 0.0210647699 0.0056507492 0.0067814669 0.0165700567 0.0128317958 0.0100947781 0.0052782236
        </DataArray>
        <DataArray type="Float32" Name="contact normal" NumberOfComponents="3" format="ascii">
 0.0000000000 0.0000000000 1.0000000000 0.0000000000 0.0000000000 1.0000000000 0.0000000000 0.0000000000 1.0000000000 0.0000000000 0.0000000000 1.0000000000 0.0000000000 0.0000000000 1.0000000000 0.0000000000 0.0000000000 1.0000000000 0.0000000000 0.0000000000 1.0000000000 0.0000000000 0.0000000000 1.0000000000 0.0000000000 0.0000000000 1.0000000000 0.0000000000 0.0000000000 1.0000000000 0.0000000000 0.0000000000 1.0000000000 0.0000000000 0.0000000000 1.0000000000 0.0000000000 0.0000000000 1.0000000000 0.0000000000 0.0000000000 1.0000000000 0.0000000000 0.0000000000 1.0000000000 0.0000000000 0.0000000000 1.0000000000 0.0000000000 0.0000000000 1.0000000000 0.0000000000 0.0000000000 1.0000000000 0.0000000000 0.0000000000 1.0000000000 0.0000000000 0.0000000000 1.0000000000 0.0000000000 0.0000000000 1.0000000000 0.0000000000 0.0000000000 1.0000000000
        </DataArray>
        <DataArray type="Float32" Name="contact force" NumberOfComponents="3" format="ascii">
 -0.6357645570 -0.7333517242 2388.0809584163 -0.8529375346 -1.0554499273 3789.8986971579 -0.6508836560 -0.7538890665 2473.6792324213 -1.1802668908 -1.4808234702 7127.1962615663 -1.3001045496 -1.5629303254 9423.1421219300 -1.3103433995 -1.5699936325 9896.7757590471 -1.3403013649 -1.5791228091 12314.4501745389 -0.2635548860 -0.2955488579 827.4222701487 -1.1180822124 -1.4205044059 6320.4322803945 -1.3467857955 -1.5767121955 13326.5579145180 -1.3454322845 -1.5773448668 13003.1961883848 -1.1729467031 -1.4743674486 7022.9118455827 -1.3496821185 -1.5776239544 14729.0169300799 -1.3004014992 -1.5631083370 9432.4805249018 -1.3311200161 -1.5805305959 11486.5723221095 -1.3431223328 -1.5783004011 12638.8619457187 -0.7979145147 -0.9719232671 3390.4495187136 -0.8886966747 -1.1090732067 4068.8801249257 -1.3111406623 -1.5705644564 9942.0340259201 -1.2202779662 -1.5131563304 7699.0774971540 -1.0958537414 -1.3959572893 6056.8668302447 -0.7659958350 -0.9230211948 3166.9341509528
        </DataArray>
        <DataArray type="Float32" Name="contact torque" NumberOfComponents="3" format="ascii">
 0.0000000000 0.0000000000 0.0000000000 0.0000000000 0.0000000000 0.0000000000 0.0000000000 0.0000000000 0.0000000000 0.0000000000 0.0000000000 0.0000000000 0.0000000000 0.0000000000 0.0000000000 0.0000000000 0.0000000000 0.0000000000 0.0000000000 0.0000000000 0.0000000000 0.0000000000 0.0000000000 0.0000000000 0.0000000000 0.0000000000 0.0000000000 0.0000000000 0.0000000000 0.0000000000 0.0000000000 0.0000000000 0.0000000000 0.0000000000 0.0000000000 0.0000000000 0.0000000000 0.0000000000 0.0000000000 0.0000000000 0.0000000000 0.0000000000 0.0000000000 0.0000000000 0.0000000000 0.0000000000 0.0000000000 0.0000000000 0.0000000000 0.0000000000 0.0000000000 0.0000000000 0.0000000000 0.0000000000 0.0000000000 0.0000000000 0.0000000000 0.0000000000 0.0000000000 0.0000000000 0.0000000000 0.0000000000 0.0000000000 0.0000000000 0.0000000000 0.0000000000
        </DataArray>
        <DataArray type="Float32" Name="sliding spring" NumberOfComponents="3" format="ascii">
 0.0000035320 0.0000040742 0.0000000000 0.0000047385 0.0000058636 0.0000000000 0.0000036160 0.0000041883 0.0000000000 0.0000065570 0.0000082268 0.0000000000 0.0000072228 0.0000086829 0.0000000000 0.0000072797 0.0000087222 0.0000000000 0.0000074461 0.0000087729 0.0000000000 0.0000014642 0.0000016419 0.0000000000 0.0000062116 0.0000078917 0.0000000000 0.0000074821 0.0000087595 0.0000000000 0.0000074746 0.0000087630 0.0000000000 0.0000065164 0.0000081909 0.0000000000 0.0000074982 0.0000087646 0.0000000000 0.0000072245 0.0000086839 0.0000000000 0.0000073951 0.0000087807 0.0000000000 0.0000074618 0.0000087683 0.0000000000 0.0000044329 0.0000053996 0.0000000000 0.0000049372 0.0000061615 0.0000000000 0.0000072841 0.0000087254 0.0000000000 0.0000067793 0.0000084064 0.0000000000 0.0000060881 0.0000077553 0.0000000000 0.0000042555 0.0000051279 0.0000000000
        </DataArray>
      </PointData>
    </Piece>
  </UnstructuredGrid>
</VTKFile>
