<?xml version="1.0"?>
<VTKFile type="UnstructuredGrid" version="0.1" byte_order="LittleEndian">
  <UnstructuredGrid>
    <FieldData>
      <DataArray type="Float32" Name="TIME"  NumberOfTuples="1" format="ascii"> 0.1500000000 </DataArray>
      <DataArray type="Int32"   Name="STEP"  NumberOfTuples="1" format="ascii"> 15000 </DataArray>
    </FieldData>
    <Piece NumberOfPoints="2004" NumberOfCells="2004">
      <Points>
        <DataArray type="Float32" NumberOfComponents="3" format="ascii">
 0.0316346408 1.0000000000 -0.1103625000 -0.0403926569 0.9990057325 -0.0733595175 0.0061712835 0.9964046963 -0.1806810930 0.0508763366 0.9967988102 -0.0440033281 -0.0937160786 0.9998005326 -0.1269395547 0.0886554152 0.9976889888 -0.1667578182 -0.0294838079 0.9912307265 -0.0006842043 -0.0562832115 0.9914396009 -0.2187323989 0.1230788145 0.9985325716 -0.0654143144 -0.1280678383 0.9979695893 -0.0574979581 0.0611379463 0.9875337327 -0.2410107400 0.0450924732 0.9848854214 0.0333994102 -0.1374624243 0.9953833922 -0.1900247846 0.1619811188 0.9990791591 -0.1459735946 -0.0976254721 0.9859053833 0.0284996881 -0.0223920089 0.9780884319 -0.2831600870 0.1392390504 0.9899544683 0.0069883191 -0.1894099105 0.9999554646 -0.1025298055 0.1364102042 0.9865350717 -0.2461088726 -0.0089998932 0.9721172858 0.0842684873 -0.1294466701 0.9823804631 -0.2654828733 0.2087765005 0.9994270823 -0.0822719171 -0.1752125325 0.9891546896 0.0115458164 0.0468882762 0.9679579979 -0.3187855886 0.1091347671 0.9733172626 0.0800922203 -0.2185905052 0.9964639818 -0.1800988331 0.2117643628 0.9930277677 -0.2082030068 -0.0893464995 0.9663540599 0.1031263931 -0.0795911538 0.9638053689 -0.3316461832 0.2178058690 0.9904434111 0.0041101605 -0.2437181240 0.9969990053 -0.0461191847 0.1345633656 0.9676905311 -0.3196394510 0.0422797596 0.9550632121 0.1356513214 -0.2060434247 0.9813449660 -0.2699341093 0.2686886377 0.9996336517 -0.1326228044 -0.1807109544 0.9719098785 0.0849807465 0.0012853233 0.9482781182 -0.3738382974 0.1836519086 0.9697966159 0.0920869247 -0.2844394317 0.9994746879 -0.1367242826 0.2258090589 0.9784498458 -0.2817435250 -0.0496297890 0.9444393294 0.1624467114 -0.1515967603 0.9569527121 -0.3512649157 0.2891864111 0.9953994066 -0.0311084940 -0.2676116867 0.9862081588 0.0269713992 0.1013334056 0.9442209530 -0.3836919624 0.1112318915 0.9442592218 0.1628758725 -0.2819067261 0.9869380280 -0.2439633584 0.3035590830 0.9935367867 -0.2039530097 -0.1549649632 0.9478964480 0.1540577367 -0.0640498973 0.9331988227 -0.4086317015 0.2625132728 0.9744278495 0.0761146325 -0.3308595617 0.9983298246 -0.0691281100 0.2089533257 0.9552598857 -0.3558494408 0.0114943249 0.9250883515 0.2048316166 -0.2318208243 0.9589951319 -0.3456010666 0.3468972683 0.9986638608 -0.0926254095 -0.2614215422 0.9655364495 0.1056369965 0.0451248016 0.9209513454 -0.4337948946 0.1912930827 0.9423179753 0.1674542471 -0.3499223677 0.9938435593 -0.1908788191 0.3099914261 0.9771780319 -0.2859912496 -0.1046097333 0.9214456757 0.2120984999 -0.1426789919 0.9262618432 -0.4231734102 0.3391633670 0.9839206505 0.0335279112 -0.3513593361 0.9869169698 0.0140817667 0.1657642583 0.9268072473 -0.4220585246 0.0876945783 0.9125757213 0.2290309374 -0.3146515945 0.9688915450 -0.3148573193 0.3809186229 0.9889727456 -0.1739153717 -0.2272132381 0.9367730855 0.1800837733 -0.0278323759 0.9027091241 -0.4674711331 0.2776029012 0.9499006011 0.1489709964 -0.3957640483 0.9819847250 -0.1142239313 0.2871600613 0.9504135518 -0.3683172155 -0.0356879782 0.8977336167 0.2552846278 -0.2301728880 0.9293830376 -0.4167268873 0.3976108519 0.9738213228 -0.0360229890 -0.3426978300 0.9647409794 0.1029661053 0.1018511305 0.8983208266 -0.4750147537 0.1746533126 0.9098161673 0.2340970285 -0.3876084720 0.9687455978 -0.2562180637 0.3863829430 0.9671149623 -0.2654612001 -0.1696883116 0.9047196490 0.2432236846 -0.1130515507 0.8932493075 -0.4834986671 0.3630351950 0.9602820046 0.1047824143 -0.4087858886 0.9440794452 -0.0246643781 0.2380477600 0.9166840248 -0.4420353155 0.0469463071 0.8812659553 0.2819126722 -0.3222911804 0.9418698165 -0.3874126304 0.4159389165 0.9163069228 -0.1234993041 -0.3052208530 0.9330723397 0.1875029044 0.0225122817 0.8749879345 -0.5122026215 0.2690767678 0.9180939947 0.2185524355 -0.4158822705 0.9021964401 -0.1704554828 0.3660598164 0.9452230421 -0.3597924956 -0.0944850035 0.8751122718 0.2912910531 -0.2074579450 0.8949171714 -0.4807347875 0.4103089527 0.9053474983 0.0249618179 -0.4025018163 0.9194934866 0.0708594402 0.1682439496 0.8819289265 -0.5016098838 0.1399810989 0.8752554384 0.2910760908 -0.3962565312 0.9210292291 -0.3235834510 0.4150087040 0.8712263110 -0.2154380205 -0.2429028956 0.8952606323 0.2594260773 -0.0683489480 0.8608536875 -0.5327101255 0.3637491532 0.9275857107 0.1770662508 -0.4191128569 0.8361288276 -0.0797538420 0.3167997338 0.9135125542 -0.4461808936 -0.0063424701 0.8528797231 0.3229866744 -0.3083296497 0.9079790181 -0.4569874252 0.4190263917 0.8199805280 -0.0673999789 -0.3788861932 0.9142576473 0.1714152526 0.0834257915 0.8520542436 -0.5448289044 0.2412643874 0.8815499459 0.2814598227 -0.4152016354 0.8226994110 -0.2285190827 0.4053310729 0.8594751363 -0.3134003118 -0.1624243835 0.8587171417 0.3149708861 -0.1683853786 0.8586152793 -0.5358375208 0.4066556033 0.8440500879 0.0872405909 -0.4149873510 0.8042255482 0.0131619635 0.2427532280 0.8727900380 -0.5154650088 0.0917133616 0.8415415168 0.3379972277 -0.3890660084 0.8793552021 -0.3924882173 0.4191829156 0.7682232871 -0.1584560516 -0.3227137499 0.8918926430 0.2613651254 -0.0123101085 0.8315409080 -0.5713972189 0.3462285372 0.8939472440 0.2478956383 -0.4197317403 0.7508887257 -0.1359317037 0.3825123888 0.8747861389 -0.4201834831 -0.0693206591 0.8293472217 0.3533863509 -0.2761689280 0.8696001074 -0.5199435713 0.4168485987 0.7511701932 -0.0101544893 -0.4038938272 0.8051463356 0.1132905184 0.1529558983 0.8353442377 -0.5666360804 0.1982070786 0.8433392599 0.3356636596 -0.4099789913 0.7691956827 -0.2890362363 0.4137213837 0.7488994768 -0.2523667617 -0.2383343902 0.8495631694 0.3274338780 -0.1168147937 0.8233778121 -0.5813821825 0.3974310726 0.8057533529 0.1534821859 -0.4186583923 0.7125996551 -0.0447047749 0.3236939970 0.8686897427 -0.5159234529 0.0330770716 0.8110736440 0.3751410631 -0.3724852360 0.8536806228 -0.4652025969 0.4199654042 0.6939877649 -0.1021665967 -0.3808208857 0.8348147027 0.2250717784 0.0526538006 0.8071580465 -0.6003408845 0.3117787239 0.8576882638 0.3131629278 -0.4179124873 0.6917027707 -0.1927254948 0.4011847489 0.7595589947 -0.3547007316 -0.1404030323 0.8120421140 0.3740245356 -0.2294237675 0.8294251988 -0.5740032273 0.4121251062 0.7056941058 0.0493259362 -0.4120221252 0.7032057592 0.0503784646 0.2302416558 0.8258602893 -0.5783647367 0.1435008572 0.8063945461 0.3804811663 -0.4014496329 0.7371191561 -0.3535962306 0.4178697368 0.6664072833 -0.1937173535 -0.3204691264 0.8446282835 0.3270748542 -0.0556877439 0.7915544354 -0.6175743902 0.3830938786 0.7871575380 0.2255101306 -0.4199709900 0.6464093641 -0.1011987888 0.3765559830 0.7988431642 -0.4707385064 -0.0337982193 0.7856216669 0.4031644741 -0.3435547693 0.8349899276 -0.5387797206 0.4187196859 0.6416709087 -0.0456829302 -0.3978554989 0.7215068877 0.1550861872 0.1252197178 0.7890114601 -0.6202966377 0.2620130786 0.8167681198 0.3683006563 -0.4138901227 0.6519243133 -0.2513599321 0.4100157998 0.6649469020 -0.2901771287 -0.2189760097 0.8019407704 0.3854743152 -0.1716743476 0.7906112131 -0.6185867520 0.4045658619 0.6781042846 0.1124466779 -0.4168624973 0.6274260615 -0.0091349729 0.3136928090 0.8203800447 -0.5779141503 0.0799435724 0.7730383019 0.4161557597 -0.3887712669 0.7221448421 -0.4237728422 0.4197842348 0.6059913524 -0.1369054825 -0.3708475506 0.7677893470 0.2751429313 0.0130446867 0.7648439634 -0.6450614302 0.3613549255 0.7832318585 0.3039436850 -0.4193215458 0.5989525737 -0.1574937112 0.3940295807 0.6894905453 -0.3974745398 -0.1077769350 0.7664209052 0.4227786149 -0.2954867298 0.8039653742 -0.6008997993 0.4153914008 0.6058353929 0.0122414391 -0.4077109777 0.6324905494 0.0889154999 0.2049674888 0.7780376859 -0.6317795590 0.2012822663 0.7760369972 0.4131054514 -0.4072623337 0.6273058584 -0.3131956858 0.4156368730 0.5940813585 -0.2296784504 -0.3038529497 0.7963086813 0.3856611995 -0.1057023085 0.7555627659 -0.6540757960 0.3933014756 0.6651027928 0.1807314235 -0.4194097171 0.5711987277 -0.0663842972 0.3640597246 0.7412561178 -0.5215424825 0.0093803984 0.7449051729 0.4433888951 -0.3702366435 0.7213919940 -0.5010192947 0.4197311374 0.5620147744 -0.0806804151 -0.3897049854 0.6623062286 0.1990368085 0.0883792508 0.7444079547 -0.6645743254 0.3252141326 0.7802742234 0.3822580562 -0.4166593075 0.5658628234 -0.2148353519 0.4050896293 0.6046567297 -0.3295410846 -0.1885876968 0.7543550699 0.4345036766 -0.2322999380 0.7626450170 -0.6471604143 0.4096294831 0.5831553028 0.0729350446 -0.4141826921 0.5652419060 0.0272979449 0.2912642177 0.7724407179 -0.6331737675 0.1328675936 0.7391515203 0.4486750199 -0.3972648385 0.6153418345 -0.3797176134 0.4188451182 0.5409216247 -0.1718687634 -0.3562664104 0.7185652386 0.3271840337 -0.0333030856 0.7258635483 -0.6812686403 0.3768859147 0.6647059224 0.2557499558 -0.4199538494 0.5297379921 -0.1226579679 0.3848415445 0.6390404317 -0.4427270272 -0.0672757434 0.7230811745 0.4629708458 -0.3425885361 0.7312004922 -0.5853789335 0.4177094100 0.5308456573 -0.0237975215 -0.4021241313 0.5805778275 0.1292007972 0.1701568860 0.7310662300 -0.6766766569 0.2645529503 0.7499031922 0.4376574043 -0.4117028327 0.5444245018 -0.2745248860 0.4124854428 0.5400739562 -0.2666646835 -0.2761424213 0.7486277772 0.4373828166 -0.1613818223 0.7238176616 -0.6830551787 0.4007799459 0.5716420690 0.1378431371 -0.4180851960 0.5143364414 -0.0311979594 0.3474263776 0.6990549919 -0.5750181230 0.0585934183 0.7077589892 0.4759942960 -0.3826482472 0.6145564673 -0.4525046564 0.4199921577 0.5012849424 -0.1154277721 -0.3793818146 0.6189963992 0.2456916114 0.0446678931 0.7025231441 -0.7010410443 0.3529891259 0.6753099411 0.33872763
[...]
      <PointData Scalars="material ID">
        <DataArray type="Int32" Name="material ID" format="ascii">
 0 0 0 0 0 0 0 0 0 0 0 0 0 0 0 0 0 0 0 0 0 0 0 0 0 0 0 0 0 0 0 0 0 0 0 0 0 0 0 0 0 0 0 0 0 0 0 0 0 0 0 0 0 0 0 0 0 0 0 0 0 0 0 0 0 0 0 0 0 0 0 0 0 0 0 0 0 0 0 0 0 0 0 0 0 0 0 0 0 0 0 0 0 0 0 0 0 0 0 0 0 0 0 0 0 0 0 0 0 0 0 0 0 0 0 0 0 0 0 0 0 0 0 0 0 0 0 0 0 0 0 0 0 0 0 0 0 0 0 0 0 0 0 0 0 0 0 0 0 0 0 0 0 0 0 0 0 0 0 0 0 0 0 0 0 0 0 0 0 0 0 0 0 0 0 0 0 0 0 0 0 0 0 0 0 0 0 0 0 0 0 0 0 0 0 0 0 0 0 0 0 0 0 0 0 0 0 0 0 0 0 0 0 0 0 0 0 0 0 0 0 0 0 0 0 0 0 0 0 0 0 0 0 0 0 0 0 0 0 0 0 0 0 0 0 0 0 0 0 0 0 0 0 0 0 0 0 0 0 0 0 0 0 0 0 0 0 0 0 0 0 0 0 0 0 0 0 0 0 0 0 0 0 0 0 0 0 0 0 0 0 0 0 0 0 0 0 0 0 0 0 0 0 0 0 0 0 0 0 0 0 0 0 0 0 0 0 0 0 0 0 0 0 0 0 0 0 0 0 0 0 0 0 0 0 0 0 0 0 0 0 0 0 0 0 0 0 0 0 0 0 0 0 0 0 0 0 0 0 0 0 0 0 0 0 0 0 0 0 0 0 0 0 0 0 0 0 0 0 0 0 0 0 0 0 0 0 0 0 0 0 0 0 0 0 0 0 0 0 0 0 0 0 0 0 0 0 0 0 0 0 0 0 0 0 0 0 0 0 0 0 0 0 0 0 0 0 0 0 0 0 0 0 0 0 0 0 0 0 0 0 0 0 0 0 0 0 0 0 0 0 0 0 0 0 0 0 0 0 0 0 0 0 0 0 0 0 0 0 0 0 0 0 0 0 0 0 0 0 0 0 0 0 0 0 0 0 0 0 0 0 0 0 0 0 0 0 0 0 0 0 0 0 0 0 0 0 0 0 0 0 0 0 0 0 0 0 0 0 0 0 0 0 0 0 0 0 0 0 0 0 0 0 0 0 0 0 0 0 0 0 0 0 0 0 0 0 0 0 0 0 0 0 0 0 0 0 0 0 0 0 0 0 0 0 0 0 0 0 0 0 0 0 0 0 0 0 0 0 0 0 0 0 0 0 0 0 0 0 0 0 0 0 0 0 0 0 0 0 0 0 0 0 0 0 0 0 0 0 0 0 0 0 0 0 0 0 0 0 0 0 0 0 0 0 0 0 0 0 0 0 0 0 0 0 0 0 0 0 0 0 0 0 0 0 0 0 0 0 0 0 0 0 0 0 0 0 0 0 0 0 0 0 0 0 0 0 0 0 0 0 0 0 0 0 0 0 0 0 0 0 0 0 0 0 0 0 0 0 0 0 0 0 0 0 0 0 0 0 0 0 0 0 0 0 0 0 0 0 0 0 0 0 0 0 0 0 0 0 0 0 0 0 0 0 0 0 0 0 0 0 0 0 0 0 0 0 0 0 0 0 0 0 0 0 0 0 0 0 0 0 0 0 0 0 0 0 0 0 0 0 0 0 0 0 0 0 0 0 0 0 0 0 0 0 0 0 0 0 0 0 0 0 0 0 0 0 0 0 0 0 0 0 0 0 0 0 0 0 0 0 0 0 0 0 0 0 0 0 0 0 0 0 0 0 0 0 0 0 0 0 0 0 0 0 0 0 0 0 0 0 0 0 0 0 0 0 0 0 0 0 0 0 0 0 0 0 0 0 0 0 0 0 0 0 0 0 0 0 0 0 0 0 0 0 0 0 0 0 0 0 0 0 0 0 0 0 0 0 0 0 0 0 0 0 0 0 0 0 0 0 0 0 0 0 0 0 0 0 0 0 0 0 0 0 0 0 0 0 0 0 0 0 0 0 0 0 0 0 0 0 0 0 0 0 0 0 0 0 0 0 0 0 0 0 0 0 0 0 0 0 0 0 0 0 0 0 0 0 0 0 0 0 0 0 0 0 0 0 0 0 0 0 0 0 0 0 0 0 0 0 0 0 0 0 0 0 0 0 0 0 0 0 0 0 0 0 0 0 0 0 0 0 0 0 0 0 0 0 0 0 0 0 0 0 0 0 0 0 0 0 0 0 0 0 0 0 0 0 0 0 0 0 0 0 0 0 0 0 0 0 0 0 0 0 0 0 0 0 0 0 0 0 0 0 0 0 0 0 0 0 0 0 0 0 0 0 0 0 0 0 0 0 0 0 0 0 0 0 0 0 0 0 0 0 0 0 0 0 0 0 0 0 0 0 0 0 0 0 0 0 0 0 0 0 0 0 0 0 0 0 0 0 0 0 0 0 0 0 0 0 0 0 0 0 0 0 0 0 0 0 0 0 0 0 0 0 0 0 0 0 0 0 0 0 0 0 0 0 0 0 0 0 0 0 0 0 0 0 0 0 0 0 0 0 0 0 0 0 0 0 0 0 0 0 0 0 0 0 0 0 0 0 0 0 0 0 0 0 0 0 0 0 0 0 0 0 0 0 0 0 0 0 0 0 0 0 0 0 0 0 0 0 0 0 0 0 0 0 0 0 0 0 0 0 0 0 0 0 0 0 0 0 0 0 0 0 0 0 0 0 0 0 0 0 0 0 0 0 0 0 0 0 0 0 0 0 0 0 0 0 0 0 0 0 0 0 0 0 0 0 0 0 0 0 0 0 0 0 0 0 0 0 0 0 0 0 0 0 0 0 0 0 0 0 0 0 0 0 0 0 0 0 0 0 0 0 0 0 0 0 0 0 0 0 0 0 0 0 0 0 0 0 0 0 0 0 0 0 0 0 0 0 0 0 0 0 0 0 0 0 0 0 0 0 0 0 0 0 0 0 0 0 0 0 0 0 0 0 0 0 0 0 0 0 0 0 0 0 0 0 0 0 0 0 0 0 0 0 0 0 0 0 0 0 0 0 0 0 0 0 0 0 0 0 0 0 0 0 0 0 0 0 0 0 0 0 0 0 0 0 0 0 0 0 0 0 0 0 0 0 0 0 0 0 0 0 0 0 0 0 0 0 0 0 0 0 0 0 0 0 0 0 0 0 0 0 0 0 0 0 0 0 0 0 0 0 0 0 0 0 0 0 0 0 0 0 0 0 0 0 0 0 0 0 0 0 0 0 0 0 0 0 0 0 0 0 0 0 0 0 0 0 0 0 0 0 0 0 0 0 0 0 0 0 0 0 0 0 0 0 0 0 0 0 0 0 0 0 0 0 0 0 0 0 0 0 0 0 0 0 0 0 0 0 0 0 0 0 0 0 0 0 0 0 0 0 0 0 0 0 0 0 0 0 0 0 0 0 0 0 0 0 0 0 0 0 0 0 0 0 0 0 0 0 0 0 0 0 0 0 0 0 0 0 0 0 0 0 0 0 0 0 0 0 0 0 0 0 0 0 0 0 0 0 0 0 0 0 0 0 0 0 0 0 0 0 0 0 0 0 0 0 0 0 0 0 0 0 0 0 0 0 0 0 0 0 0 0 0 0 0 0 0 0 0 0 0 0 0 0 0 0 0 0 0 0 0 0 0 0 0 0 0 0 0 0 0 0 0 0 0 0 0 0 0 0 0 0 0 0 0 0 0 0 0 0 0 0 0 0 0 0 0 0 0 0 0 0 0 0 0 0 0 0 0 0 0 0 0 0 0 0 0 0 0 0 0 0 0 0 0 0 0 0 0 0 0 0 0 0 0 0 0 0 0 0 0 0 0 0 0 0 0 0 0 0 0 0 0 0 0 0 0 0 0 0 0 0 0 0 0 0 0 0 0 0 0 0 0 0 0 0 0 0 0 0 0 0 0 0 0 0 0 0 0 0 0 0 0 0 0 0 0 0 0 0 0 0 0 0 0 0 0 0 0 0 0 0 0 0 0 0 0 0 0 0 0 0 0 0 0 0 0 0 0 0 0 0 0 0 0 0 0 0 0 0 0 0 0 0 0 0 0 0 0 0 0 0 0 0 0 0 0 0 0 0 0 0 0 0 0 0 0 0 0 0 0 0 0 0 0 0 0 0 0 0 0 0 0 0 0 0 0 0 0 0 0 0 0 0 0 0 0 0 0 0 0 0 0 0 0 0 0 0 0 0 0 0 0 0 0 0 0 0 0 0 0 0 0 0 0 0 0 0 0 0 0 0 0 0 0 0 0 0 0 0 0 0 0 0 0 0 0 0 0 0 0 0 0 0 0 0 0 0 0 0 0 0 0 0 0 0 0 0 0 0 0 0 0 0 0 0 0 0 0 0 0 0 0 0 0 0 0 0 0 0 0 0 0 0 0 0 0 0 0 0 0 0 0 0 0 0 0 0 0 0 0 0 0 0 0 0 0
        </DataArray>
        <DataArray type="Float32" Name="velocity" NumberOfComponents="3" format="ascii">
 0.0000000000 0.0000000000 -1.4715000000 0.0000000000 0.0000000000 -1.4715000000 0.0000000000 0.0000000000 -1.4715000000 0.0000000000 0.0000000000 -1.4715000000 0.0000000000 0.0000000000 -1.4715000000 0.0000000000 0.0000000000 -1.4715000000 0.0000000000 0.0000000000 -1.4715000000 0.0000000000 0.0000000000 -1.4715000000 0.0000000000 0.0000000000 -1.4715000000 0.0000000000 0.0000000000 -1.4715000000 0.0000000000 0.0000000000 -1.4715000000 0.0000000000 0.0000000000 -1.4715000000 0.0000000000 0.0000000000 -1.4715000000 0.0000000000 0.0000000000 -1.4715000000 0.0000000000 0.0000000000 -1.4715000000 0.0000000000 0.0000000000 -1.4715000000 0.0000000000 0.0000000000 -1.4715000000 0.0000000000 0.0000000000 -1.4715000000 0.0000000000 0.0000000000 -1.4715000000 0.0000000000 0.0000000000 -1.4715000000 0.0000000000 0.0000000000 -1.4715000000 0.0000000000 0.0000000000 -1.4715000000 0.0000000000 0.0000000000 -1.4715000000 0.0000000000 0.0000000000 -1.4715000000 0.0000000000 0.0000000000 -1.4715000000 0.0000000000 0.0000000000 -1.4715000000 0.0000000000 0.0000000000 -1.4715000000 0.0000000000 0.0000000000 -1.4715000000 0.0000000000 0.0000000000 -1.4715000000 0.0000000000 0.0000000000 -1.4715000000 0.0000000000 0.0000000000 -1.4715000000 0.0000000000 0.0000000000 -1.4715000000 0.0000000000 0.0000000000 -1.4715000000 0.0000000000 0.0000000000 -1.4715000000 0.0000000000 0.0000000000 -1.4715000000 0.0000000000 0.0000000000 -1.4715000000 0.0000000000 0.0000000000 -1.4715000000 0.0000000000 0.0000000000 -1.4715000000 0.0000000000 0.0000000000 -1.4715000000 0.0000000000 0.0000000000 -1.4715000000 0.0000000000 0.0000000000 -1.4715000000 0.0000000000 0.0000000000 -1.4715000000 0.0000000000 0.0000000000 -1.4715000000 0.0000000000 0.0000000000 -1.4715000000 0.0000000000 0.0000000000 -1.4715000000 0.0000000000 0.0000000000 -1.4715000000 0.0000000000 0.0000000000 -1.4715000000 0.0000000000 0.0000000000 -1.4715000000 0.0000000000 0.0000000000 -1.4715000000 0.0000000000 0.0000000000 -1.4715000000 0.0000000000 0.0000000000 -1.4715000000 0.0000000000 0.0000000000 -1.4715000000 0.0000000000 0.0000000000 -1.4715000000 0.0000000000 0.0000000000 -1.4715000000 0.0000000000 0.0000000000 -1.4715000000 0.0000000000 0.0000000000 -1.4715000000 0.0000000000 0.0000000000 -1.4715000000 0.0000000000 0.0000000000 -1.4715000000 0.0000000000 0.0000000000 -1.4715000000 0.0000000000 0.0000000000 -1.4715000000 0.0000000000 0.0000000000 -1.4715000000 0.0000000000 0.0000000000 -1.4715000000 0.0000000000 0.0000000000 -1.4715000000 0.0000000000 0.0000000000 -1.4715000000 0.0000000000 0.0000000000 -1.4715000000 0.0000000000 0.0000000000 -1.4715000000 0.0000000000 0.0000000000 -1.4715000000 0.0000000000 0.0000000000 -1.4715000000 0.0000000000 0.0000000000 -1.4715000000 0.0000000000 0.0000000000 -1.4715000000 0.0000000000 0.0000000000 -1.4715000000 0.0000000000 0.0000000000 -1.4715000000 0.0000000000 0.0000000000 -1.4715000000 0.0000000000 0.0000000000 -1.4715000000 0.0000000000 0.0000000000 -1.4715000000 0.0000000000 0.0000000000 -1.4715000000 0.0000000000 0.0000000000 -1.4715000000 0.0000000000 0.0000000000 -1.4715000000 0.0000000000 0.0000000000 -1.4715000000 0.0000000000 0.0000000000 -1.4715000000 0.0000000000 0.0000000000 -1.4715000000 0.0000000000 0.0000000000 -1.4715000000 0.0000000000 0.0000000000 -1.4715000000 0.0000000000 0.0000000000 -1.4715000000 0.0000000000 0.0000000000 -1.4715000000 0.0000000000 0.0000000000 -1.4715000000 0.0000000000 0.0000000000 -1.4715000000 0.0000000000 0.0000000000 -1.4715000000 0.0000000000 0.0000000000 -1.4715000000 0.0000000000 0.0000000000 -1.4715000000 0.0000000000 0.0000000000 -1.4715000000 0.0000000000 0.0000000000 -1.4715000000 0.0000000000 0.0000000000 -1.4715000000 0.0000000000 0.0000000000 -1.4715000000 0.0000000000 0.0000000000 -1.4715000000 0.0000000000 0.0000000000 -1.4715000000 0.0000000000 0.0000000000 -1.4715000000 0.0000000000 0.0000000000 -1.4715000000 0.0000000000 0.0000000000 -1.4715000000 0.0000000000 0.0000000000 -1.4715000000 0.0000000000 0.0000000000 -1.4715000000 0.0000000000 0.0000000000 -1.4715000000 0.0000000000 0.0000000000 -1.4715000000 0.0000000000 0.0000000000 -1.4715000000 0.0000000000 0.0000000000 -1.4715000000 0.0000000000 0.0000000000 -1.4715000000 0.0000000000 0.0000000000 -1.4715000000 0.0000000000 0.0000000000 -1.4715000000 0.0000000000 0.0000000000 -1.4715000000 0.0000000000 0.0000000000 -1.4715000000 0.0000000000 0.0000000000 -1.4715000000 0.0000000000 0.0000000000 -1.4715000000 0.0000000000 0.0000000000 -1.4715000000 0.0000000000 0.0000000000 -1.4715000000 0.0000000000 0.0000000000 -1.4715000000 0.0000000000 0.0000000000 -1.4715000000 0.0000000000 0.0000000000 -1.4715000000 0.0000000000 0.0000000000 -1.4715000000 0.0000000000 0.0000000000 -1.4715000000 0.0000000000 0.0000000000 -1.4715000000 0.0000000000 0.0000000000 -1.4715000000 0.0000000000 0.0000000000 -1.4715000000 0.0000000000 0.0000000000 -1.4715000000 0.0000000000 0.0000000000 -1.4715000000 0.0000000000 0.0000000000 -1.4715000000 0.0000000000 0.0000000000 -1.4715000000 0.0000000000 0.0000000000 -1.4715000000 0.0000000000 0.0000000000 -1.4715000000 0.0000000000 0.0000000000 -1.4715000000 0.0000000000 0.0000000000 -1.4715000000 0.0000000000 0.0000000000 -1.4715000000 0.0000000000 0.0000000000 -1.4715000000 0.0000000000 0.0000000000 -1.4715000000 0.0000000000 0.0000000000 -1.4715000000 0.0000000000 0.0000000000 -1.4715000000 0.0000000000 0.0000000000 -1.4715000000 0.0000000000 0.0000000000 -1.4715000000 0.0000000000 0.0000000000 -1.4715000000 0.0000000000 0.0000000000 -1.4715000000 0.0000000000 0.0000000000 -1.4715000000 0.0000000000 0.0000000000 -1.4715000000 0.0000000000 0.0000000000 -1.4715000000 0.0000000000 0.0000000000 -1.4715000000 0.0000000000 0.0000000000 -1.4715000000 0.0000000000 0.0000000000 -1.4715000000 0.0000000000 0.0000000000 -1.4715000000 0.0000000000 0.0000000000 -1.4715000000 0.0000000000 0.0000000000 -1.4715000000 0.0000000000 0.0000000000 -1.4715000000 0.0000000000 0.0000000000 -1.4715000000 0.0000000000 0.0000000000 -1.4715000000 0.0000000000 0.0000000000 -1.4715000000 0.0000000000 0.0000000000 -1.4715000000 0.0000000000 0.0000000000 -1.4715000000 0.0000000000 0.0000000000 -1.4715000000 0.0000000000 0.0000000000 -1.4715000000 0.0000000000 0.0000000000 -1.4715000000 0.0000000000 0.0000000000 -1.4715000000 0.0000000000 0.0000000000 -1.4715000000 0.0000000000 0.0000000000 -1.4715000000 0.0000000000 0.0000000000 -1.4715000000 0.0000000000 0.0000000000 -1.4715000000 0.0000000000 0.0000000000 -1.4715000000 0.0000000000 0.0000000000 -1.4715000000 0.0000000000 0.0000000000 -1.4715000000 0.0000000000 0.0000000000 -1.4715000000 0.0000000000 0.0000000000 -1.4715000000 0.0000000000 0.0000000000 -1.4715000000 0.0000000000 0.0000000000 -1.4715000000 0.0000000000 0.0000000000 -1.4715000000 0.0000000000 0.0000000000 -1.4715000000 0.0000000000 0.0000000000 -1.4715000000 0.0000000000 0.0000000000 -1.4715000000 0.0000000000 0.0000000000 -1.4715000000 0.0000000000 0.0000000000 -1.4715000000 0.0000000000 0.0000000000 -1.4715000000 0.0000000000 0.0000000000 -1.4715000000 0.0000000000 0.0000000000 -1.4715000000 0.0000000000 0.0000000000 -1.4715000000 0.0000000000 0.0000000000 -1.4715000000 0.0000000000 0.0000000000 -1.4715000000 0.0000000000 0.0000000000 -1.4715000000 0.0000000000 0.0000000000 -1.4715000000 0.0000000000 0.0000000000 -1.4715000000 0.0000000000 0.0000000000 -1.4715000000 0.0000000000 0.0000000000 -1.4715000000 0.0000000000 0.0000000000 -1.4715000000 0.0000000000 0.0000000000 -1.4715000000 0.0000000000 0.0000000000 -1.4715000000 0.0000000000 0.0000000000 -1.4715000000 0.0000000000 0.0000000000 -1.4715000000 0.0000000000 0.0000000000 -1.4715000000 0.0000000000 0.0000000000 -1.4715000000 0.0000000000 0.0000000000 -1.4715000000 0.0000000000 0.0000000000 -1.4715000000 0.0000000000 0.0000000000 -1.4715000000 0.0000000000 0.0000000000 -1.4715000000 0.0000000000 0.0000000000 -1.4715000000 0.0000000000 0.0000000000 -1.4715000000 0.0000000000 0.0000000000 -1.4715000000 0.0000000000 0.0000000000 -1.4715000000 0.0000000000 0.0000000000 -1.4715000000 0.0000000000 0.0000000000 -1.4715000000 0.0000000000 0.0000000000 -1.4715000000 0.0000000000 0.0000000000 -1.4715000000 0.0000000000 0.0000000000 -1.4715000000 0.0000000000 0.0000000000 -1.4715000000 0.0000000000 0.0000000000 -1.4715000000 0.0000000000 0.0000000000 -1.4715000000 0.0000000000 0.0000000000 -1.4715000000 0.0000000000 0.0000000000 -1.4715000000 0.0000000000 0.0000000000 -1.4715000000 0.0000000000 0.0000000000 -1.4715000000 0.0000000000 0.0000000000 -1.4715000000 0.0000000000 0.0000000000 -1.4715000000 0.0000000000 0.0000000000 -1.4715000000 0.0000000000 0.0000000000 -1.4715000000 0.0000000000 0.0000000000 -1.4715000000 0.0000000000 0.0000000000 -1.4715000000 0.0000000000 0.0000000000 -1.4715000000 0.0000000000 0.0000000000 -1.4715000000 0.0000000000 0.0000000000 -1.4715000000 0.0000000000 0.0000000000 -1.4715000000 0.0000000000 0.0000000000 -1.4715000000 0.0000000000 0.0000000000 -1.4715000000 0.0000000000 0.0000000000 -1.4715000000 0.0000000000 0.0000000000 -1.4715000000 0.0000000000 0.0000000000 -1.4715000000 0.0000000000 0.0000000000 -1.4715000000 0.0000000000 0.0000000000 -1.4715000000 0.0000000000 0.0000000000 -1.4715000000 0.0000000000 0.0000000000 -1.4715000000 0.0000000000 0.0000000000 -1.4715000000 0.0000000000 0.0000000000 -1.4715000000 0.0000000000 0.0000000000 -1.4715000000 0.0000000000 0.0000000000 -1.4715000000 0.0000000000 0.0000000000 -1.4715000000 0.0000000000 0.0000000000 -1.4715000000 0.0000000000 0.0000000000 -1.4715000000 0.0000000000 0.0000000000 -1.4715000000 0.0000000000 0.0000000000 -1.4715000000 0.0000000000 0.0000000000 -1.4715000000 0.0000000000 0.0000000000 -1.4715000000 0.0000000000 0.0000000000 -1.4715000000 0.0000000000 0.0000000000 -1.4715000000 0.0000000000 0.0000000000 -1.4715000000 0.0000000000 0.0000000000 -1.4715000000 0.0000000000 0.0000000000 -1.4715000000 0.0000000000 0.0000000000 -1.4715000000 0.0000000000 0.0000000000 -1.4715000000 0.0000000000 0.0000000000 -1.4715000000 0.0000000000 0.0000000000 -1.4715000000 0.0000000000 0.0000000000 -1.4715000000 0.0000000000 0.0000000000 -1.4715000000 0.0000000000 0.0000000000 -1.4715000000 0.0000000000 0.0000000000 -1.4715000000 0.0000000000 0.0000000000 -1.4715000000 0.0000000000 0.0000000000 -1.4715000000 0.0000000000 0.0000000000 -1.4715000000 0.0000000000 0.0000000000 -1.4715000000 0.0000000000 0.0000000000 -1.4715000000 0.0000000000 0.0000000000 -1.4715000000 0.0000000000 0.0000000000 -1.4715000000 0.0000000000 0.0000000000 -1.4715000000 0.0000000000 0.0000000000 -1.4715000000 0.0000000000 0.0000000000 -1.4715000000 0.0000000000 0.0000000000 -1.4715000000 0.0000000000 0.0000000000 -1.4715000000 0.0000000000 0.0000000000 -1.4715000000 0.0000000000 0.0000000000 -1.4715000000 0.0000000000 0.0000000000 -1.4715000000 0.0000000000 0.0000000000 -1.4715000000 0.0000000000 0.0000000000 -1.4715000000 0.0000000000 0.0000000000 -1.4715000000 0.0000000000 0.0000000000 -1.4715000000 0.0000000000 0.0000000000 -1.4715000000 0.0000000000 0.0000000000 -1.4715000000 0.0000000000 0.0000000000 -1.4715000000 0.0000000000 0.0000000000 -1.4715000000 0.0000000000 0.0000000000 -1.4715000000 0.0000000000 0.0000000000 -1.4715000000 0.0000000000 0.0000000000 -1.4715000000 0.0000000000 0.0000000000 -1.4715000000 0.0000000000 0.0000000000 -1.4715000000 0.0000000000 0.0000000000 -1.4715000000 0.0000000000 0.0000000000 -1.4715000000 0.0000000000 0.0000000000 -1.4715000000 0.0000000000 0.0000000000 -1.4715000000 0.0000000000 0.0000000000 -1.4715000000 0.0000000000 0.0000000000 -1.4715000000 0.0000000000 0.0000000000 -1.4715000000 0.0000000000 0.0000000000 -1.4715000000 0.0000000000 0.0000000000 -1.4715000000 0.0000000000 0.0000000000 -1.4715000000 0.0000000000 0.0000000000 -1.4715000000 0.0000000000 0.0000000000 -1.4715000000 0.0000000000 0.0000000000 -1.4715000000 0.0000000000 0.0000000000 -1.4715000000 0.0000000000 0.0000000000 -1.4715000000 0.0000000000 0.0000000000 -1.4715000000 0.0000000000 0.0000000000 -1.4715000000 0.0000000000 0.0000000000 -1.4715000000 0.0000000000 0.0000000000 -1.4715000000 0.0000000000 0.0000000000 -1.4715000000 0.0000000000 0.0000000000 -1.4715000000 0.0000000000 0.0000000000 -1.4715000000 0.0000000000 0.0000000000 -1.4715000000 0.0000000000 0.0000000000 -1.4715000000 0.0000000000 0.0000000000 -1.4715000000 0.0000000000 0.0000000000 -1.4715000000 0.0000000000 0.0000000000 -1.4715000000 0.0000000000 0.0000000000 -1.4715000000 0.0000000000 0.0000000000 -1.4715000000 0.0000000000 0.0000000000 -1.4715000000 0.0000000000 0.0000000000 -1.4715000000 0.0000000000 0.0000000000 -1.4715000000 0.0000000000 0.0000000000 -1.4715000000 0.0000000000 0.0000000000 -1.4715000000 0.0000000000 0.0000000000 -1.4715000000 0.0000000000 0.0000000000 -1.4715000000 0.0000000000 0.0000000000 -1.4715000000 0.0000000000 0.0000000000 -1.4715000000 0.0000000000 0.0000000000 -1.4715000000 0.0000000000 0.0000000000 -1.4715000000 0.0000000000 0.0000000000 -1.4715000000 0.0000000000 0.0000000000 -1.4715000000 0.0000000000 0.0000000000 -1.4715000000 0.0000000000 0.0000000000 -1.4715000000 0.0000000000 0.0000000000 -1.4715000000 0.0000000000 0.0000000000 -1.4715000000 0.0000000000 0.0000000000 -1.4715000000 0.0000000000 0.0000000000 -1.4715000000 0.0000000000 0.0000000000 -1.4715000000 0.0000000000 0.0000000000 -1.4715000000 0.0000000000 0.0000000000 -1.4715000000 0.0000000000 0.0000000000 -1.4715000000 0.0000000000 0.0000000000 -1.4715000000 0.0000000000 0.0000000000 -1.4715000000 0.0000000000 0.0000000000 -1.4715000000 0.0000000000 0.0000000000 -1.4715000000 0.0000000000 0.0000000000 -1.4715000000 0.0000000000 0.0000000000 -1.4715000000 0.0000000000 0.0000000000 -1.4715000000 0.0000000000 0.0000000000 -1.4715000000 0.0000000000 0.0000000000 -1.4715000000 0.0000000000 0.0000000000 -1.4715000000 0.0000000000 0.0000000000 -1.4715000000 0.0000000000 0.0000000000 -1.4715000000 0.0000000000 0.0000000000 -1.4715000000 0.0000000000 0.0000000000 -1.4715000000 0.0000000000 0.0000000000 -1.4715000000 0.0000000000 0.0000000000 -1.4715000000 0.0000000000 0.0000000000 -1.4715000000 0.0000000000 0.0000000000 -1.4715000000 0.0000000000 0.0000000000 -1.4715000000 0.0000000000 0.0000000000 -1.4715000000 0.0000000000 0.0000000000 -1.4715000000 0.0000000000 0.0000000000 -1.4715000000 0.0000000000 0.0000000000 -1.4715000000 0.0000000000 0.0000000000 -1.4715000000 0.0000000000 0.0000000000 -1.4715000000 0.0000000000 0.0000000000 -1.4715000000 0.0000000000 0.0000000000 -1.4715000000 0.0000000000 0.0000000000 -1.4715000000 0.0000000000 0.0000000000 -1.4715000000 0.0000000000 0.0000000000 -1.4715000000 0.0000000000 0.0000000000 -1.4715000000 0.0000000000 0.0000000000 -1.4715000000 0.0000000000 0.0000000000 -1.4715000000 0.0000000000 0.0000000000 -1.4715000000 0.0000000000 0.0000000000 -1.4715000000 0.0000000000 0.0000000000 -1.4715000000 0.0000000000 0.0000000000 -1.4715000000 0.0000000000 0.0000000000 -1.4715000000 0.0000000000 0.0000000000 -1.4715000000 0.0000000000 0.0000000000 -1.4715000000 0.0000000000 0.0000000000 -1.4715000000 0.0000000000 0.0000000000 -1.4715000000 0.0000000000 0.0000000000 -1.4715000000 0.0000000000 0.0000000000 -1.4715000000 0.0000000000 0.0000000000 -1.4715000000 0.0000000000 0.0000000000 -1.4715000000 0.0000000000 0.0000000000 -1.4715000000 0.0000000000 0.0000000000 -1.4715000000 0.0000000000 0.0000000000 -1.4715000000 0.0000000000 0.0000000000 -1.4715000000 0.0000000000 0.0000000000 -1.4715000000 0.0000000000 0.0000000000 -1.4715000000 0.0000000000 0.0000000000 -1.4715000000 0.0000000000 0.0000000000 -1.4715000000 0.0000000000 0.0000000000 -1.4715000000 0.0000000000 0.0000000000 -1.4715000000 0.0000000000 0.0000000000 -1.4715000000 0.0000000000 0.0000000000 -1.4715000000 0.0000000000 