<?xml version="1.0"?>
<VTKFile type="UnstructuredGrid" version="0.1" byte_order="LittleEndian">
  <UnstructuredGrid>
    <FieldData>
      <DataArray type="Float32" Name="TIME"  NumberOfTuples="1" format="ascii"> 0.5000000000 </DataArray>
      <DataArray type="Int32"   Name="STEP"  NumberOfTuples="1" format="ascii"> 50000 </DataArray>
    </FieldData>
    <Piece NumberOfPoints="2004" NumberOfCells="2004">
      <Points>
        <DataArray type="Float32" NumberOfComponents="3" format="ascii">
 0.0305083231 0.9989622278 -0.0273913770 -0.0415479105 0.9979099705 0.0095536207 0.0050999805 0.9954780213 -0.0977354579 0.0496980754 0.9956562309 0.0389776968 -0.0948293877 0.9987896038 -0.0440668029 0.0875731978 0.9967398912 -0.0837456376 -0.0306959641 0.9900202427 0.0822250890 -0.0573247425 0.9905733140 -0.1358434074 0.1219172919 0.9974233781 0.0176259752 -0.1292354806 0.9968492816 0.0253449181 0.0601137949 0.9867019595 -0.1580359993 0.0438535979 0.9836207576 0.1163569917 -0.1385263765 0.9944722485 -0.1071931345 0.1608826218 0.9980968633 -0.0629018781 -0.0988604655 0.9846492312 0.1113472152 -0.0233831942 0.9773236340 -0.2002655433 0.1380208337 0.9887309555 0.0900276060 -0.1905422896 0.9989065446 -0.0197317239 0.1353900147 0.9857109314 -0.1630768020 -0.0102786096 0.9707726698 0.1671635182 -0.1304516363 0.9815883542 -0.1826653510 0.2076281461 0.9983440171 0.0008368651 -0.1764342225 0.9879257095 0.0943377879 0.0459249025 0.9672490452 -0.2358527649 0.1078592873 0.9719785874 0.1630815870 -0.2196621947 0.9955376194 -0.0973289730 0.2107145176 0.9921433962 -0.1251017886 -0.0906399716 0.9649801361 0.1859494330 -0.0805444433 0.9631174066 -0.2488188572 0.2165898823 0.9892240085 0.0872116989 -0.2448946387 0.9958613782 0.0366316505 0.1336006321 0.9669824457 -0.2366384457 0.0409607495 0.9536372613 0.2185594879 -0.2070448889 0.9805603015 -0.1871781480 0.2675796639 0.9986297049 -0.0494667391 -0.1819901765 0.9705650797 0.1677410917 0.0003649572 0.9476563055 -0.2909721232 0.1823670056 0.9684386109 0.1751290246 -0.2855450276 0.9984802434 -0.0540012635 0.2248166908 0.9776814524 -0.1986542054 -0.0509697826 0.9429716159 0.2452661576 -0.1525347057 0.9562961085 -0.2685047136 0.2879979811 0.9942351770 0.0520567715 -0.2688454310 0.9849553492 0.1096863987 0.1004207018 0.9436141449 -0.3007538907 0.1098915120 0.9427899500 0.2458209021 -0.2829284646 0.9861127938 -0.1612579724 0.3025058863 0.9926452057 -0.1207791690 -0.1562983458 0.9464425439 0.2368002300 -0.0649430826 0.9326322860 -0.3258403888 0.2612408631 0.9730946087 0.1592257707 -0.3320180402 0.9972289783 0.0135566758 0.2080188499 0.9546085426 -0.2728097859 0.0101210656 0.9235534496 0.2876682911 -0.2327631684 0.9583300285 -0.2629004229 0.3457569697 0.9975963762 -0.0094097411 -0.2627169295 0.9641595081 0.1883241002 0.0442512203 0.9204239299 -0.3509374427 0.1899490881 0.9408410432 0.2504588513 -0.3509855931 0.9929349290 -0.1082158391 0.3090023505 0.9764158812 -0.2028380606 -0.1059886587 0.9198999482 0.2948385684 -0.1435608042 0.9257186907 -0.3404545449 0.3379242970 0.9826541739 0.1167140695 -0.3525829659 0.9856849561 0.0967323752 0.1648814815 0.9262606451 -0.3390974553 0.0863023073 0.9110022343 0.3119074549 -0.3156179272 0.9681783737 -0.2322059199 0.3798418797 0.9880333512 -0.0906882482 -0.2285670104 0.9352785257 0.2627521435 -0.0286796617 0.9022352675 -0.3846994990 0.2762733749 0.9484523507 0.2320551278 -0.3968872902 0.9809554097 -0.0316156512 0.2862352966 0.9497814587 -0.2852239943 -0.0371008172 0.8961193994 0.3380411435 -0.2310597044 0.9288301889 -0.3340715678 0.3964261426 0.9726642804 0.0471930748 -0.3439911060 0.9633686986 0.1855883625 0.1010096891 0.8978581678 -0.3921485596 0.1732570391 0.9082342136 0.3170372259 -0.3886206664 0.9679403016 -0.1736240716 0.3853777372 0.9663200120 -0.1822641477 -0.1710916425 0.9031251877 0.3258863919 -0.1138863094 0.8928012189 -0.4008086153 0.3617402629 0.9589029968 0.1879498422 -0.4099793650 0.9429089357 0.0578737645 0.2371805494 0.9161685599 -0.3590336292 0.0455125373 0.8796092903 0.3647078210 -0.3232008532 0.9412712031 -0.3048097329 0.4148224050 0.9152878773 -0.0403595138 -0.3065804223 0.9315665055 0.2701043858 0.0216998639 0.8745844168 -0.4294352656 0.2676926638 0.9165360407 0.3015796011 -0.4169618453 0.9012560600 -0.0879887526 0.3651283353 0.9445770723 -0.2766457415 -0.0959260944 0.8734415916 0.3739658130 -0.2082948304 0.8944652369 -0.3981159777 0.4090762301 0.9040942459 0.1080796803 -0.4037701435 0.9181722497 0.1533635582 0.1674232281 0.8815078878 -0.4187175628 0.1385401050 0.8735838125 0.3739345379 -0.3972162142 0.9203303332 -0.2410714113 0.4139639408 0.8703523935 -0.1323699466 -0.2443189222 0.8936410187 0.3420165467 -0.0691453514 0.8604830433 -0.4500361352 0.3623975221 0.9260926857 0.2601825349 -0.4202636825 0.8350454327 0.0026059737 0.3159357295 0.9130032028 -0.3631225846 -0.0078084832 0.8511585763 0.4056952734 -0.3091850304 0.9074901499 -0.3744269706 0.4178655744 0.8188730684 0.0155901500 -0.3802332317 0.9127776241 0.2539294316 0.0826387869 0.8517019006 -0.4620500217 0.2398309136 0.8798929304 0.3644074669 -0.4162361149 0.8218507427 -0.1461771657 0.4043629153 0.8587558575 -0.2303582002 -0.1638840520 0.8570094906 0.3975665800 -0.1691793138 0.8582501206 -0.4532453323 0.4053738905 0.8426986644 0.1702587788 -0.4162110171 0.8029955620 0.0954745240 0.2419432862 0.8723904640 -0.4325287857 0.0902355250 0.8397961622 0.4207646382 -0.3899719545 0.8787650410 -0.3100362005 0.4180931273 0.7672595651 -0.0755473251 -0.3241312836 0.8902704113 0.3438878286 -0.0130763821 0.8312310361 -0.4887255720 0.3448213469 0.8923425977 0.3309450263 -0.4208389700 0.7498940813 -0.0537067826 0.3816278577 0.8742354554 -0.3371349019 -0.0708105396 0.8275784826 0.4360084936 -0.2769752201 0.8692104470 -0.4374184114 0.4156426972 0.7499725057 0.0727252732 -0.4051958403 0.8037582982 0.1956130569 0.1521858649 0.8350259432 -0.4838291254 0.1967310430 0.8415970017 0.4185172376 -0.4109663466 0.7684425401 -0.2067745607 0.4127049973 0.7480839871 -0.1694926533 -0.2398038262 0.8478362806 0.4099557121 -0.1175732570 0.8230842779 -0.4988051714 0.3960973680 0.8042975074 0.2364326261 -0.4198371671 0.7114611088 0.0374604294 0.3228843717 0.8682904536 -0.4329303656 0.0315700597 0.8092700407 0.4578144611 -0.3733343993 0.8532051361 -0.3827780046 0.4188312557 0.6929353140 -0.0193744790 -0.3822102454 0.8332501264 0.3074590099 0.0519100512 0.8068935182 -0.5176568338 0.3103203206 0.8559808685 0.3961280471 -0.4189755293 0.6907978028 -0.1105924497 0.4002484848 0.7589050295 -0.2718194547 -0.1419091133 0.8102412217 0.4565637217 -0.2301879444 0.8291206310 -0.4915047979 0.4108724715 0.7044026487 0.1321301552 -0.4132753417 0.7019171599 0.1325338918 0.2294807357 0.8255600894 -0.4955122547 0.1419896132 0.8045819176 0.4632335754 -0.4023866107 0.7364678736 -0.2713783934 0.4168071077 0.6654993328 -0.1109702519 -0.3219382773 0.8429024174 0.4095246349 -0.0564180416 0.7913177122 -0.5349997065 0.3817037397 0.7855881439 0.3084198990 -0.4211058405 0.6453600473 -0.0191389634 0.3757106892 0.7983723768 -0.3878143354 -0.0353272462 0.7837742446 0.4857453414 -0.3443464489 0.8346304004 -0.4563618686 0.4175411190 0.6405294063 0.0370255761 -0.3991905727 0.7200529735 0.2372814136 0.1244914840 0.7887780443 -0.5375844089 0.2605113732 0.8149740483 0.4511621837 -0.4149074552 0.6511118901 -0.1692864139 0.4090286437 0.6641911968 -0.2074383273 -0.2204910686 0.8001222550 0.4679360647 -0.1724038217 0.7903767240 -0.5361043100 0.4032637223 0.6767133073 0.1952013511 -0.4180694665 0.6262314871 0.0728971888 0.3129314876 0.8200786834 -0.4950050187 0.0784042920 0.7711697736 0.4988057506 -0.3896534011 0.7216042379 -0.3415686034 0.4186768950 0.6049938253 -0.0542522994 -0.3722763770 0.7661457940 0.3574321318 0.0123357623 0.7646502678 -0.5624750688 0.3599034047 0.7815388310 0.3868301277 -0.4204125489 0.5979921381 -0.0755081708 0.3931264907 0.6889041977 -0.3147093539 -0.1093213682 0.7645429636 0.5052712700 -0.2962299488 0.8037036392 -0.5184931922 0.4141673588 0.6046025566 0.0948907076 -0.4089946497 0.6311412084 0.1709626614 0.2042481691 0.7778219653 -0.5490222279 0.1997453483 0.7741726133 0.4958551215 -0.4082313881 0.6265909979 -0.2311557303 0.4146020760 0.5932302520 -0.1470471609 -0.3053681528 0.7944903430 0.4680476491 -0.1064041824 0.7553839558 -0.5715969802 0.3919458536 0.6636041495 0.2634566622 -0.4205721283 0.5700945689 0.0155572410 0.3632539428 0.7408656323 -0.4387188752 0.0078197111 0.7429940961 0.5259392404 -0.3710583436 0.7209731736 -0.4188016213 0.4185796166 0.5609285868 0.0019032501 -0.3910747030 0.6607829954 0.2811449334 0.0876854849 0.7442446604 -0.5819612327 0.3237013317 0.7784578282 0.4651114319 -0.4177055837 0.5649928917 -0.1328998507 0.4041330199 0.6039632374 -0.2469012065 -0.1901413310 0.7524590856 0.5169140438 -0.2330071541 0.7624559802 -0.5647694922 0.4083578557 0.5818267599 0.1555439244 -0.4154184337 0.5639899082 0.1092340286 0.2905459386 0.7722267314 -0.5503577417 0.1313027078 0.7372314332 0.5313129025 -0.3981818953 0.6147318967 -0.2976886098 0.4177648603 0.5399793510 -0.0893189323 -0.3577361707 0.7168395532 0.4094068936 -0.0339838302 0.7257272852 -0.5987799941 0.3754715963 0.6630890005 0.3384616074 -0.4210724040 0.5287226800 -0.0407821877 0.3839736518 0.6385255995 -0.3600485640 -0.0688518222 0.7211396472 0.5454267448 -0.3433441941 0.7309146161 -0.5031240192 0.4165132484 0.5296697661 0.0587352928 -0.4034395474 0.5791649557 0.2111703563 0.1694725082 0.7309216001 -0.5940206090 0.2629966908 0.7479997546 0.5204153075 -0.4127024962 0.5436487515 -0.1926192409 0.4114793582 0.5392812934 -0.1841210191 -0.2776983058 0.7467277368 0.5197156342 -0.1620611384 0.7236849216 -0.6006699746 0.3994574837 0.5702111729 0.2204268253 -0.4192753812 0.5131768269 0.0506548395 0.3466622649 0.6987490273 -0.4922740355 0.0570070456 0.7057962420 0.5585244863 -0.3835083582 0.6140612984 -0.3704653422 0.4188675679 0.5002536555 -0.0329396724 -0.3807882251 0.6173995484 0.3277394043 0.0440024970 0.7024176810 -0.6185281862 0.3515099323 0.6735622095 0.4214371938 -0.4196272752 0.49
[...]
      <PointData Scalars="material ID">
        <DataArray type="Int32" Name="material ID" format="ascii">
 0 0 0 0 0 0 0 0 0 0 0 0 0 0 0 0 0 0 0 0 0 0 0 0 0 0 0 0 0 0 0 0 0 0 0 0 0 0 0 0 0 0 0 0 0 0 0 0 0 0 0 0 0 0 0 0 0 0 0 0 0 0 0 0 0 0 0 0 0 0 0 0 0 0 0 0 0 0 0 0 0 0 0 0 0 0 0 0 0 0 0 0 0 0 0 0 0 0 0 0 0 0 0 0 0 0 0 0 0 0 0 0 0 0 0 0 0 0 0 0 0 0 0 0 0 0 0 0 0 0 0 0 0 0 0 0 0 0 0 0 0 0 0 0 0 0 0 0 0 0 0 0 0 0 0 0 0 0 0 0 0 0 0 0 0 0 0 0 0 0 0 0 0 0 0 0 0 0 0 0 0 0 0 0 0 0 0 0 0 0 0 0 0 0 0 0 0 0 0 0 0 0 0 0 0 0 0 0 0 0 0 0 0 0 0 0 0 0 0 0 0 0 0 0 0 0 0 0 0 0 0 0 0 0 0 0 0 0 0 0 0 0 0 0 0 0 0 0 0 0 0 0 0 0 0 0 0 0 0 0 0 0 0 0 0 0 0 0 0 0 0 0 0 0 0 0 0 0 0 0 0 0 0 0 0 0 0 0 0 0 0 0 0 0 0 0 0 0 0 0 0 0 0 0 0 0 0 0 0 0 0 0 0 0 0 0 0 0 0 0 0 0 0 0 0 0 0 0 0 0 0 0 0 0 0 0 0 0 0 0 0 0 0 0 0 0 0 0 0 0 0 0 0 0 0 0 0 0 0 0 0 0 0 0 0 0 0 0 0 0 0 0 0 0 0 0 0 0 0 0 0 0 0 0 0 0 0 0 0 0 0 0 0 0 0 0 0 0 0 0 0 0 0 0 0 0 0 0 0 0 0 0 0 0 0 0 0 0 0 0 0 0 0 0 0 0 0 0 0 0 0 0 0 0 0 0 0 0 0 0 0 0 0 0 0 0 0 0 0 0 0 0 0 0 0 0 0 0 0 0 0 0 0 0 0 0 0 0 0 0 0 0 0 0 0 0 0 0 0 0 0 0 0 0 0 0 0 0 0 0 0 0 0 0 0 0 0 0 0 0 0 0 0 0 0 0 0 0 0 0 0 0 0 0 0 0 0 0 0 0 0 0 0 0 0 0 0 0 0 0 0 0 0 0 0 0 0 0 0 0 0 0 0 0 0 0 0 0 0 0 0 0 0 0 0 0 0 0 0 0 0 0 0 0 0 0 0 0 0 0 0 0 0 0 0 0 0 0 0 0 0 0 0 0 0 0 0 0 0 0 0 0 0 0 0 0 0 0 0 0 0 0 0 0 0 0 0 0 0 0 0 0 0 0 0 0 0 0 0 0 0 0 0 0 0 0 0 0 0 0 0 0 0 0 0 0 0 0 0 0 0 0 0 0 0 0 0 0 0 0 0 0 0 0 0 0 0 0 0 0 0 0 0 0 0 0 0 0 0 0 0 0 0 0 0 0 0 0 0 0 0 0 0 0 0 0 0 0 0 0 0 0 0 0 0 0 0 0 0 0 0 0 0 0 0 0 0 0 0 0 0 0 0 0 0 0 0 0 0 0 0 0 0 0 0 0 0 0 0 0 0 0 0 0 0 0 0 0 0 0 0 0 0 0 0 0 0 0 0 0 0 0 0 0 0 0 0 0 0 0 0 0 0 0 0 0 0 0 0 0 0 0 0 0 0 0 0 0 0 0 0 0 0 0 0 0 0 0 0 0 0 0 0 0 0 0 0 0 0 0 0 0 0 0 0 0 0 0 0 0 0 0 0 0 0 0 0 0 0 0 0 0 0 0 0 0 0 0 0 0 0 0 0 0 0 0 0 0 0 0 0 0 0 0 0 0 0 0 0 0 0 0 0 0 0 0 0 0 0 0 0 0 0 0 0 0 0 0 0 0 0 0 0 0 0 0 0 0 0 0 0 0 0 0 0 0 0 0 0 0 0 0 0 0 0 0 0 0 0 0 0 0 0 0 0 0 0 0 0 0 0 0 0 0 0 0 0 0 0 0 0 0 0 0 0 0 0 0 0 0 0 0 0 0 0 0 0 0 0 0 0 0 0 0 0 0 0 0 0 0 0 0 0 0 0 0 0 0 0 0 0 0 0 0 0 0 0 0 0 0 0 0 0 0 0 0 0 0 0 0 0 0 0 0 0 0 0 0 0 0 0 0 0 0 0 0 0 0 0 0 0 0 0 0 0 0 0 0 0 0 0 0 0 0 0 0 0 0 0 0 0 0 0 0 0 0 0 0 0 0 0 0 0 0 0 0 0 0 0 0 0 0 0 0 0 0 0 0 0 0 0 0 0 0 0 0 0 0 0 0 0 0 0 0 0 0 0 0 0 0 0 0 0 0 0 0 0 0 0 0 0 0 0 0 0 0 0 0 0 0 0 0 0 0 0 0 0 0 0 0 0 0 0 0 0 0 0 0 0 0 0 0 0 0 0 0 0 0 0 0 0 0 0 0 0 0 0 0 0 0 0 0 0 0 0 0 0 0 0 0 0 0 0 0 0 0 0 0 0 0 0 0 0 0 0 0 0 0 0 0 0 0 0 0 0 0 0 0 0 0 0 0 0 0 0 0 0 0 0 0 0 0 0 0 0 0 0 0 0 0 0 0 0 0 0 0 0 0 0 0 0 0 0 0 0 0 0 0 0 0 0 0 0 0 0 0 0 0 0 0 0 0 0 0 0 0 0 0 0 0 0 0 0 0 0 0 0 0 0 0 0 0 0 0 0 0 0 0 0 0 0 0 0 0 0 0 0 0 0 0 0 0 0 0 0 0 0 0 0 0 0 0 0 0 0 0 0 0 0 0 0 0 0 0 0 0 0 0 0 0 0 0 0 0 0 0 0 0 0 0 0 0 0 0 0 0 0 0 0 0 0 0 0 0 0 0 0 0 0 0 0 0 0 0 0 0 0 0 0 0 0 0 0 0 0 0 0 0 0 0 0 0 0 0 0 0 0 0 0 0 0 0 0 0 0 0 0 0 0 0 0 0 0 0 0 0 0 0 0 0 0 0 0 0 0 0 0 0 0 0 0 0 0 0 0 0 0 0 0 0 0 0 0 0 0 0 0 0 0 0 0 0 0 0 0 0 0 0 0 0 0 0 0 0 0 0 0 0 0 0 0 0 0 0 0 0 0 0 0 0 0 0 0 0 0 0 0 0 0 0 0 0 0 0 0 0 0 0 0 0 0 0 0 0 0 0 0 0 0 0 0 0 0 0 0 0 0 0 0 0 0 0 0 0 0 0 0 0 0 0 0 0 0 0 0 0 0 0 0 0 0 0 0 0 0 0 0 0 0 0 0 0 0 0 0 0 0 0 0 0 0 0 0 0 0 0 0 0 0 0 0 0 0 0 0 0 0 0 0 0 0 0 0 0 0 0 0 0 0 0 0 0 0 0 0 0 0 0 0 0 0 0 0 0 0 0 0 0 0 0 0 0 0 0 0 0 0 0 0 0 0 0 0 0 0 0 0 0 0 0 0 0 0 0 0 0 0 0 0 0 0 0 0 0 0 0 0 0 0 0 0 0 0 0 0 0 0 0 0 0 0 0 0 0 0 0 0 0 0 0 0 0 0 0 0 0 0 0 0 0 0 0 0 0 0 0 0 0 0 0 0 0 0 0 0 0 0 0 0 0 0 0 0 0 0 0 0 0 0 0 0 0 0 0 0 0 0 0 0 0 0 0 0 0 0 0 0 0 0 0 0 0 0 0 0 0 0 0 0 0 0 0 0 0 0 0 0 0 0 0 0 0 0 0 0 0 0 0 0 0 0 0 0 0 0 0 0 0 0 0 0 0 0 0 0 0 0 0 0 0 0 0 0 0 0 0 0 0 0 0 0 0 0 0 0 0 0 0 0 0 0 0 0 0 0 0 0 0 0 0 0 0 0 0 0 0 0 0 0 0 0 0 0 0 0 0 0 0 0 0 0 0 0 0 0 0 0 0 0 0 0 0 0 0 0 0 0 0 0 0 0 0 0 0 0 0 0 0 0 0 0 0 0 0 0 0 0 0 0 0 0 0 0 0 0 0 0 0 0 0 0 0 0 0 0 0 0 0 0 0 0 0 0 0 0 0 0 0 0 0 0 0 0 0 0 0 0 0 0 0 0 0 0 0 0 0 0 0 0 0 0 0 0 0 0 0 0 0 0 0 0 0 0 0 0 0 0 0 0 0 0 0 0 0 0 0 0 0 0 0 0 0 0 0 0 0 0 0 0 0 0 0 0 0 0 0 0 0 0 0 0 0 0 0 0 0 0 0 0 0 0 0 0 0 0 0 0 0 0 0 0 0 0 0 0 0 0 0 0 0 0 0 0 0 0 0 0 0 0 0 0 0 0 0 0 0 0 0 0 0 0 0 0 0 0 0 0 0 0 0 0 0 0 0 0 0 0 0 0 0 0 0 0 0 0 0 0 0 0 0 0 0 0 0
        </DataArray>
        <DataArray type="Float32" Name="velocity" NumberOfComponents="3" format="ascii">
 -0.0040368275 -0.0036675787 -0.7595526800 -0.0039520751 -0.0034730026 -0.7593818399 -0.0041981076 -0.0040407348 -0.7594759427 -0.0038845524 -0.0033155878 -0.7595791749 -0.0040750705 -0.0037580031 -0.7592642973 -0.0041660421 -0.0039652471 -0.7596717853 -0.0037852696 -0.0030877541 -0.7593649235 -0.0042854292 -0.0042436887 -0.7593067797 -0.0039335527 -0.0034275359 -0.7597541768 -0.0039158395 -0.0033907728 -0.7591751040 -0.0043362652 -0.0043593474 -0.7595556172 -0.0037068810 -0.0029056686 -0.7595019970 -0.0042197827 -0.0040932152 -0.7591411995 -0.0041182583 -0.0038535929 -0.7598471143 -0.0037183881 -0.0029345655 -0.7591801252 -0.0044329661 -0.0045844880 -0.7593144192 -0.0037673529 -0.0030436306 -0.7597450518 -0.0040192588 -0.0036306339 -0.7590453949 -0.0043478102 -0.0043848173 -0.7597230155 -0.0035901422 -0.0026373481 -0.7593097631 -0.0043926695 -0.0044929925 -0.7590914504 -0.0039720745 -0.0035150855 -0.7599556370 -0.0037574540 -0.0030259727 -0.7590195674 -0.0045144211 -0.0047719148 -0.7594199976 -0.0035995241 -0.0026570309 -0.7595871079 -0.0041971763 -0.0040422840 -0.7589607558 -0.0042608186 -0.0041823552 -0.7599298600 -0.0035469603 -0.0025391297 -0.7590947572 -0.0045440914 -0.0048427028 -0.7591080416 -0.0037738195 -0.0030572570 -0.7599278663 -0.0038899366 -0.0033328725 -0.7589045995 -0.0045162187 -0.0047746334 -0.7596196734 -0.0034719808 -0.0023641682 -0.7593364863 -0.0044030029 -0.0045181667 -0.7589103327 -0.0040874529 -0.0037806452 -0.7600946524 -0.0035888141 -0.0026371167 -0.7589148345 -0.0046405172 -0.0050647305 -0.7592116862 -0.0035718344 -0.0025919667 -0.7597392373 -0.0040978506 -0.0038137857 -0.7588252427 -0.0044292763 -0.0045718606 -0.7598855734 -0.0034105520 -0.0022241701 -0.7590691244 -0.0045891295 -0.0049481998 -0.7589067839 -0.0038545315 -0.0032423586 -0.7601181972 -0.0037222023 -0.0029461664 -0.7587918786 -0.0046628855 -0.0051149134 -0.7594197503 -0.0034092767 -0.0022185804 -0.7594371048 -0.0043436452 -0.0043820717 -0.7587657116 -0.0042509128 -0.0041579383 -0.7601430469 -0.0034300262 -0.0022707645 -0.7588459400 -0.0047202417 -0.0052505656 -0.7589822902 -0.0036083860 -0.0026749350 -0.7599448094 -0.0039428826 -0.0034565770 -0.7587120245 -0.0045989755 -0.0049650711 -0.7597247886 -0.0033129808 -0.0019984843 -0.7591063467 -0.0045763093 -0.0049198257 -0.7587335534 -0.0039955633 -0.0035671042 -0.7602684804 -0.0035415004 -0.0025293819 -0.7586957422 -0.0047776018 -0.0053817502 -0.7591680432 -0.0033986072 -0.0021926860 -0.7596103939 -0.0042221029 -0.0041021347 -0.7586457683 -0.0044388514 -0.0045926429 -0.7600719513 -0.0032964752 -0.0019624035 -0.7588206844 -0.0047536460 -0.0053292980 -0.7587653431 -0.0037060461 -0.0028989315 -0.7601713404 -0.0037519250 -0.0030161865 -0.7586036886 -0.0047505424 -0.0053170253 -0.7594756419 -0.0032571803 -0.0018687912 -0.7592145659 -0.0045060722 -0.0047585476 -0.7585957063 -0.0041818218 -0.0039972192 -0.7602959835 -0.0033703203 -0.0021344418 -0.7586210328 -0.0048547370 -0.0055618493 -0.7589043951 -0.0034409424 -0.0022887809 -0.7598487134 -0.0040462194 -0.0036970038 -0.7584770138 -0.0046273686 -0.0050295626 -0.7598786041 -0.0031969963 -0.0017323478 -0.7588526742 -0.0047390576 -0.0052969176 -0.7585811474 -0.0038653312 -0.0032663438 -0.7602525830 -0.0035477619 -0.0025452170 -0.7585051456 -0.0048717497 -0.0055991835 -0.7591786506 -0.0032453693 -0.0018401771 -0.7593993336 -0.0043717080 -0.0044493383 -0.7584270095 -0.0043914978 -0.0044823681 -0.7601936261 -0.0032249892 -0.0017989607 -0.7585824820 -0.0048915286 -0.0056486117 -0.7586589807 -0.0035422722 -0.0025210768 -0.7601001113 -0.0038403443 -0.0032230352 -0.7582453868 -0.0047961007 -0.0054214714 -0.7595879875 -0.0031355630 -0.0015896860 -0.7589546685 -0.0046721492 -0.0051433838 -0.7584357394 -0.0040651920 -0.0037299622 -0.7599907510 -0.0033533965 -0.0020967693 -0.7584224362 -0.0049568851 -0.0057980640 -0.7588734273 -0.0032809589 -0.0019205277 -0.7596599157 -0.0041742007 -0.0039960429 -0.7580086629 -0.0046076082 -0.0049828085 -0.7600319722 -0.0031142277 -0.0015429603 -0.7585975910 -0.0048853804 -0.0056358995 -0.7584512676 -0.0037245552 -0.0029435109 -0.7599182594 -0.0036209264 -0.0027169539 -0.7581285538 -0.0049324176 -0.0057388725 -0.7592443367 -0.0031143018 -0.0015392630 -0.7591361040 -0.0045256173 -0.0048068682 -0.7581550207 -0.0042754819 -0.0042175189 -0.7597506791 -0.0031878376 -0.0017146971 -0.7583642772 -0.0050039018 -0.0059087201 -0.7585903495 -0.0033760625 -0.0021383212 -0.7599277643 -0.0039653265 -0.0035160562 -0.7576502547 -0.0048054268 -0.0054418404 -0.7597518438 -0.0030410875 -0.0013733812 -0.7586816203 -0.0048312631 -0.0055120389 -0.7582888872 -0.0039352803 -0.0034334474 -0.7594868503 -0.0033901849 -0.0021836902 -0.7581539519 -0.0050313116 -0.0059698783 -0.7588919443 -0.0031362565 -0.0015880760 -0.7594018499 -0.0043063504 -0.0043043583 -0.7575895764 -0.0045000316 -0.0047368949 -0.7596672112 -0.0030598275 -0.0014190247 -0.7583546562 -0.0050112255 -0.0059273731 -0.7583490851 -0.0035809330 -0.0026140989 -0.7595844465 -0.0037518001 -0.0030238999 -0.7574897246 -0.0049639441 -0.0058108273 -0.7593669408 -0.0030063380 -0.0012919167 -0.7588462820 -0.0046831065 -0.0051721777 -0.7579513906 -0.0041434580 -0.0039163606 -0.7592138839 -0.0031834902 -0.0017060965 -0.7581633637 -0.0050921560 -0.0061128030 -0.7585639465 -0.0032132093 -0.0017636562 -0.7597086184 -0.0040930796 -0.0038144543 -0.7571977374 -0.0047451841 -0.0053030552 -0.7596970902 -0.0029711742 -0.0012137963 -0.7584121764 -0.0049751063 -0.0058452858 -0.7581599264 -0.0038031030 -0.0031307378 -0.7591166634 -0.0035221402 -0.0024931068 -0.7575190300 -0.0050809883 -0.0060841351 -0.7589630917 -0.0030115222 -0.0013020706 -0.7591000768 -0.0044444534 -0.0046253634 -0.7573186649 -0.0043586102 -0.0044142446 -0.7590999188 -0.0030312613 -0.0013546283 -0.7581319238 -0.0051151398 -0.0061679342 -0.7582811101 -0.0034285274 -0.0022636114 -0.7593596913 -0.0038833501 -0.0033313632 -0.7569963874 -0.0049647976 -0.0058116216 -0.7595308580 -0.0029208596 -0.0010965646 -0.7585499789 -0.0048495222 -0.0055573461 -0.7578541135 -0.0040133984 -0.0036187012 -0.7588217493 -0.0032661020 -0.0019000815 -0.7577280192 -0.0051581102 -0.0062650326 -0.7585840370 -0.0030631099 -0.0014188345 -0.7594368160 -0.0042225760 -0.0041158480 -0.7568888734 -0.0045934799 -0.0049566565 -0.7591286875 -0.0029237442 -0.0011060501 -0.7581572422 -0.0050984955 -0.0061311065 -0.7580548083 -0.0036661043 -0.0028160433 -0.7588642583 -0.0036651373 -0.0028274822 -0.7569608660 -0.0051076281 -0.0061447679 -0.7590902137 -0.0029083533 -0.0010660307 -0.7587783901 -0.0045920986 -0.0049675432 -0.7571689163 -0.0042230257 -0.0041040799 -0.7586717297 -0.0030321687 -0.0013582657 -0.7579174011 -0.0051976303 -0.0063587133 -0.7582530486 -0.0032631129 -0.0018824041 -0.7592275421 -0.0040120744 -0.0036312916 -0.7566432230 -0.0048601699 -0.0055716916 -0.7592815375 -0.0028563787 -0.0009496673 -0.7582614502 -0.0050179843 -0.0059467729 -0.7578221753 -0.0038831788 -0.0033198712 -0.7585411032 -0.0034251927 -0.0022722166 -0.7570892677 -0.0052035166 -0.0063694285 -0.7586545161 -0.0029362109 -0.0011280416 -0.7591052909 -0.0043565395 -0.0044267871 -0.7566879170 -0.0044442582 -0.0046153707 -0.7586469579 -0.0028974945 -0.0010470853 -0.7579233926 -0.0052001483 -0.0063664773 -0.7579820437 -0.0035209913 -0.0024819686 -0.7587000876 -0.0038006700 -0.0031435627 -0.7565488291 -0.0051063744 -0.0061407052 -0.7592525673 -0.0028262164 -0.0008785893 -0.7584555107 -0.0047528383 -0.0053392556 -0.7571193615 -0.0040919435 -0.0038035134 -0.7583554131 -0.0031503807 -0.0016351215 -0.7573952322 -0.0052602070 -0.0065031663 -0.7582694340 -0.0030832086 -0.0014672851 -0.7591560856 -0.0041405795 -0.0039299679 -0.7563938212 -0.0046906966 -0.0051840378 -0.7587414342 -0.0028112782 -0.0008474229 -0.7579898390 -0.0051599759 -0.0062752000 -0.7577686589 -0.0037498705 -0.0030133125 -0.7583429970 -0.0035758331 -0.0026237863 -0.7565956581 -0.0052295693 -0.0064287209 -0.7587793881 -0.0028330333 -0.0008922249 -0.7587497235 -0.0044980357 -0.0047545087 -0.7565732982 -0.0043045791 -0.0042952797 -0.7582837348 -0.0028971458 -0.0010478924 -0.7576988808 -0.0052809759 -0.0065534576 -0.7579479982 -0.0033642285 -0.0021204855 -0.7586046671 -0.0039312570 -0.0034474354 -0.7562456322 -0.0049759744 -0.0058416285 -0.7589482521 -0.0027635202 -0.0007359780 -0.7581443250 -0.0049299655 -0.0057481896 -0.7571586663 -0.0039624221 -0.0035059594 -0.7581216982 -0.0033236131 -0.0020396600 -0.7567938236 -0.0053045632 -0.0066051777 -0.7583341274 -0.0029036160 -0.0010530865 -0.7590567289 -0.0042716663 -0.0042340290 -0.7562251741 -0.0045337759 -0.0048245563 -0.7583165951 -0.0027843759 -0.0007870620 -0.7577404448 -0.0052654332 -0.0065193661 -0.7576951013 -0.0036103842 -0.0026920204 -0.7582089888 -0.0037163043 -0.0029509783 -0.7562251052 -0.0052325401 -0.0064343757 -0.7589476682 -0.0027511005 -0.0007054697 -0.7583970041 -0.0046504367 -0.0051068859 -0.7565335084 -0.0041712993 -0.0039893387 -0.7580088242 -0.0030303618 -0.0013594794 -0.7571673182 -0.0053428328 -0.0066963011 -0.7579569536 -0.0031921926 -0.0017233226 -0.7585641529 -0.0040597925 -0.0037459736 -0.7560252645 -0.0047938542 -0.0054244309 -0.7584534969 -0.0027184646 -0.0006339813 -0.7578526734 -0.0051235267 -0.0061945385 -0.7572749074 -0.0038315601 -0.0032048532 -0.7579513254 -0.0034827585 -0.0024106432 -0.7563329885 -0.0053320025 -0.0066677302 -0.7584511139 -0.0027762721 -0.0007610439 -0.7587561094 -0.0044082840 -0.0045503862 -0.7561235512 -0.0043887209 -0.0044917772 -0.7579907092 -0.0027778559 -0.0007736595 -0.7575092596 -0.0053471339 -0.0067084258 -0.7576523802 -0.0034613808 -0.0023483672 -0.7581270270 -0.0038498212 -0.0032614398 -0.7559470120 -0.0050981118 -0.0061256786 -0.7586870318 -0.0026881716 -0.0005625057 -0.7580600354 -0.0048173425 -0.0054922717 -0.7565636096 -0.0040413363 -0.0036905795 -0.7578008558 -0.0032160317 -0.0017925969 -0.7565875369 -0.0053877422 -0.0067996575 -0.7580123066 -0.0030020567 -0.0012840484 -0.7585646909 -0.0041890984 -0.0040458168 -0.7558709887 -0.0046279344 -0.0050439061 -0.7580638028 -0.0026896111 -0.0005692460 -0.7575846825 -0.0053019431 -0.0066059250 -0.7573874290 -0.0036963950 -0.0028934423 -0.7578315464 -0.0036293987 -0.0027519432 -0.7559825050 -0.0053417306 -0.0066889856 -0.7586208720 -0.0026914183 -0.0005677527 -0.7583737999 -0.0045536353 -0.0048864931 -0.7560814755 -0.0042520451 -0.0041778182 -0.7577397410 -0.0029038287 -0.0010682309 -0.7570169026 -0.0054098290 -0.0068532760 -0.7576515525 -0.0032992672 -0.0019741136 -0.7580884719 -0.0039794410 -0.0035623835 -0.7557404915 -0.0049038149 -0.0056800839 -0.7582291943 -0.0026420058 -0.0004581075 -0.7577456499 -0.0050020874 -0.0059183755 -0.7566626876 -0.0039117718 -0.0033923645 -0.7576452730 -0.0033849665 -0.0021860989 -0.7561403144 -0.0054173535 -0.0068673125 -0.7581175600 -0.0027978457 -0.0008122044 -0.7585724756 -0.0043220427 -0.0043536662 -0.7557723455 -0.0044761406 -0.0046953961 -0.7577605240 -0.0026767726 -0.0005413370 -0.7573408503 -0.0053994136 -0.0068312570 -0.7573670788 -0.0035537684 -0.0025644917 -0.7577536984 -0.0037669984 -0.0030717541 -0.7557159739 -0.0052269604 -0.0064249125 -0.7584705000 -0.0026269812 -0.0004215121 -0.7580079133 -0.0047112170 -0.0052504493 -0.7560960072 -0.0041205154 -0.0038753335 -0.7575465319 -0.0031015889 -0.0015292259 -0.7564447210 -0.0054561144 -0.0069598937 -0.7576954650 -0.0031204914 -0.0015611103 -0.7580854508 -0.0041080465 -0.0038605701 -0.7555915593 -0.0047275425 -0.0052754742 -0.7578628293 -0.0026107501 -0.0003879720 -0.7574568664 -0.0052058795 -0.0063879946 -0.7568298866 -0.0037797125 -0.0030880819 -0.7575320458 -0.0035391069 -0.0025446737 -0.7557971880 -0.0054324494 -0.0069010445 -0.7582767890 -0.0026470515 -0.0004652269 -0.7583773376 -0.0044616730 -0.0046766052 -0.7557233900 -0.0043348275 -0.0043706206 -0.7575239307 -0.0027715576 -0.0007633272 -0.7569220015 -0.0054641490 -0.0069808982 -0.7573554906 -0.0034002443 -0.0022101086 -0.7577115108 -0.0038987933 -0.0033776844 -0.7555148305 -0.0050211831 -0.0059525548 -0.7580460618 -0.0025790885 -0.0003133053 -0.7576683029 -0.0048846414 -0.0056505971 -0.7561675730 -0.0039911388 -0.0035774955 -0.7573989486 -0.0032815404 -0.0019481694 -0.7559989631 -0.0054880984 -0.0070331297 -0.7577868435 -0.0029226225 -0.0011038174 -0.7581072860 -0.0042384734 -0.0041626164 -0.7554911151 -0.0045676022 -0.0049080397 -0.7575739682 -0.0025932792 -0.0003494956 -0.7571942476 -0.0054104229 -0.0068591099 -0.7570304305 -0.0036421452 -0.0027708201 -0.7574541518 -0.0036820219 -0.0028767408 -0.7555339243 -0.0053600652 -0.0067338432 -0.7582729617 -0.0025773502 -0.0003069965 -0.7579875059 -0.0046113145 -0.0050223338 -0.7557216805 -0.0042005868 -0.0040618108 -0.7573393261 -0.0029797644 -0.0012484561 -0.7563499293 -0.0055122772 -0.0070918621 -0.7573870187 -0.0032321887 -0.0018219363 -0.7576995474 -0.0040277750 -0.0036767376 -0.7553662458 -0.0048334199 -0.0055212712 -0.7576973341 -0.0025453787 -0.0002376625 -0.7573569278 -0.0050768858 -0.0060937978 -0.7562985447 -0.0038610339 -0.0032777088 -0.7572883673 -0.0034445618 -0.0023272697 -0.7556547597 -0.0055071832 -0.0070761971 -0.7579294292 -0.0027083672 -0.0006086527 -0.7581311648 -0.0043736509 -0.0044753291 -0.7554337000 -0.0044203499 -0.0045694792 -0.7573462214 -0.0026385936 -0.0004565730 -0.7568618408 -0.0055079449 -0.0070841387 -0.7570688617 -0.0034958154 -0.0024330975 -0.7574064703 -0.0038171314 -0.0031903279 -0.7553329024 -0.0051461598 -0.0062424228 -0.7578881036 -0.0025273378 -0.0001940930 -0.7576200114 -0.0047745541 -0.0053991354 -0.7557676451 -0.0040702993 -0.0037618379 -0.7571959542 -0.0031716251 -0.0016949614 -0.7558974530 -0.0055465824 -0.0071705662 -0.7574637486 -0.0030462744 -0.0013923358 -0.7577111417 -0.0041567998 -0.0039755751 -0.7552615833 -0.0046639263 -0.0051316939 -0.7574184696 -0.0025242099 -0.0001907939 -0.7570732873 -0.0052880997 -0.0065803883 -0.7564901040 -0.0037272841 -0.0029692801 -0.7572086019 -0.0035941026 -0.0026746615 -0.7553890956 -0.0054868144 -0.0070282217 -0.7580571337 -0.0025410521 -0.0002231260 -0.7579890559 -0.0045167297 -0.0048060052 -0.7554167638 -0.0042822100 -0.0042516253 -0.7571666074 -0.0028506293 -0.0009505249 -0.7562929445 -0.0055583990 -0.0072005637 -0.7570881967 -0.0033371913 -0.0020667845 -0.7573847653 -0.0039475781 -0.0034927852 -0.7551816211 -0.0049463061 -0.0057830890 -0.7575557266 -0.0024912708 -0.0001131793 -0.7572842650 -0.0049549048 -0.0058151074 -0.7558639398 -0.0039410382 -0.0034639964 -0.7570859661 -0.0033448765 -0.0020977481 -0.7555460322 -0.0055689598 -0.0072213689 -0.7575884140 -0.0028410290 -0.0009179872 -0.7577349281 -0.0042887281 -0.0042808440 -0.7551953830 -0.0045093699 -0.0047762181 -0.7571963882 -0.0025250032 -0.0001946058 -0.7567977485 -0.0055031114 -0.0070754614 -0.7567222876 -0.0035867995 -0.0026451034 -0.7571550962 -0.0037337283 -0.0029987075 -0.7551845696 -0.0052781608 -0.0065484331 -0.7577420729 -0.0024847865 -0.0000959286 -0.7576002566 -0.0046711506 -0.0051625946 -0.7554402444 -0.0041498983 -0.0039469613 -0.7570252588 -0.0030545327 -0.0014249402 -0.7558282966 -0.0055949060 -0.0072844579 -0.7571505115 -0.0031626604 -0.0016635692 -0.7573843875 -0.0040762925 -0.0037909452 -0.7550714278 -0.0047659610 -0.0053683828 -0.7572850501 -0.0024670003 -0.0000593030 -0.7569785751 -0.0051546720 -0.0062755502 -0.7560141118 -0.0038099303 -0.0031616898 -0.7570036117 -0.0035024165 -0.0024636686 -0.7552736825 -0.0055779733 -0.0072409611 -0.7577598699 -0.0026211044 -0.0004098044 -0.7577476806 -0.0044265635 -0.0045995049 -0.7551647340 -0.0043660813 -0.0044464485 -0.7570196376 -0.0027153269 -0.0006381300 -0.7562659881 -0.0055961899 -0.0072899525 -0.7567985429 -0.0034362187 -0.0022974391 -0.7571241971 -0.0038667597 -0.0033071706 -0.7550285256 -0.0050666980 -0.0060621424 -0.7574287062 -0.0024464719 -0.000010