<?xml version="1.0"?>
<VTKFile type="UnstructuredGrid" version="0.1" byte_order="LittleEndian">
  <UnstructuredGrid>
    <FieldData>
      <DataArray type="Float32" Name="TIME"  NumberOfTuples="1" format="ascii"> 0.6500000000 </DataArray>
      <DataArray type="Int32"   Name="STEP"  NumberOfTuples="1" format="ascii"> 65000 </DataArray>
    </FieldData>
    <Piece NumberOfPoints="16" NumberOfCells="16">
      <Points>
        <DataArray type="Float32" NumberOfComponents="3" format="ascii">
 0.0156003211 0.1754096915 -1.0026009870 -0.0522518976 0.1469484369 -1.0045966410 0.0577758302 0.1291354918 -1.0049314492 -0.0102925069 0.1005610475 -1.0070288324 -0.0778546762 0.0714418106 -1.0021167034 0.0319810648 0.0546763380 -1.0078942092 -0.0364365937 0.0264024630 -1.0077072962 0.0734747859 0.0089056512 -1.0026635403 0.0058586679 -0.0191852913 -1.0091670782 -0.0622024552 -0.0471173190 -1.0048351834 0.0479818761 -0.0647219518 -1.0064866906 -0.0202682476 -0.0932713992 -1.0075296866 -0.0873988027 -0.1206696644 -1.0004686157 0.0218270968 -0.1393828642 -1.0053046635 -0.0459577761 -0.1682670685 -1.0035183227 0.0634212556 -0.1863722164 -1.0020907313
        </DataArray>
      </Points>
      <Cells>
        <DataArray type="Int32" Name="connectivity" format="ascii">
 0 1 2 3 4 5 6 7 8 9 10 11 12 13 14 15
        </DataArray>
        <DataArray type="Int32" Name="offsets" format="ascii">
 1 2 3 4 5 6 7 8 9 10 11 12 13 14 15 16
        </DataArray>
        <DataArray type="UInt8" Name="types" format="ascii">
 1 1 1 1 1 1 1 1 1 1 1 1 1 1 1 1
        </DataArray>
      </Cells>
      <PointData Scalars="overlap">
        <DataArray type="Float32" Name="overlap" format="ascii">
 0.0052019739 0.0091932821 0.0098628984 0.0140576648 0.0042334069 0.0157884184 0.0154145924 0.0053270806 0.0183341564 0.0096703668 0.0129733811 0.0150593731 0.0009372315 0.0106093270 0.0070366454 0.0041814625
        </DataArray>
        <DataArray type="Float32" Name="contact normal" NumberOfComponents="3" format="ascii">
 0.0000000000 0.0000000000 1.0000000000 0.0000000000 0.0000000000 1.0000000000 0.0000000000 0.0000000000 1.0000000000 0.0000000000 0.0000000000 1.0000000000 0.0000000000 0.0000000000 1.0000000000 0.0000000000 0.0000000000 1.0000000000 0.0000000000 0.0000000000 1.0000000000 0.0000000000 0.0000000000 1.0000000000 0.0000000000 0.0000000000 1.0000000000 0.0000000000 0.0000000000 1.0000000000 0.0000000000 0.0000000000 1.0000000000 0.0000000000 0.0000000000 1.0000000000 0.0000000000 0.0000000000 1.0000000000 0.0000000000 0.0000000000 1.0000000000 0.0000000000 0.0000000000 1.0000000000 0.0000000000 0.0000000000 1.0000000000
        </DataArray>
        <DataArray type="Float32" Name="contact force" NumberOfComponents="3" format="ascii">
 -29.9012557626 6.7502931805 3121.1843631020 -29.4025780249 6.3946788945 5515.9692595195 -29.2929548717 6.3680171075 5917.7390365497 -28.6222893293 6.0215835702 8434.5988738041 -29.9779461252 6.8219389676 2540.0441237113 -28.3236260877 5.8960398048 9473.0510101806 -28.3837980396 5.9091918767 9248.7554556862 -29.8435224134 6.7536213740 3196.2483896463 -27.8848827007 5.6658117896 11000.4938557178 -29.2853123986 6.3560427807 5802.2200666655 -28.7537908066 6.1219703401 7784.0286853685 -28.4117770922 5.9429519564 9035.6238853797 -30.1892846565 7.1939165603 562.3388715681 -29.1122376824 6.3012097771 6365.5962106947 -29.6115641022 6.5749085832 4221.9872670663 -29.9139297898 6.8625953899 2508.8775084280
        </DataArray>
        <DataArray type="Float32" Name="contact torque" NumberOfComponents="3" format="ascii">
 0.0000000000 0.0000000000 0.0000000000 0.0000000000 0.0000000000 0.0000000000 0.0000000000 0.0000000000 0.0000000000 0.0000000000 0.0000000000 0.0000000000 0.0000000000 0.0000000000 0.0000000000 0.0000000000 0.0000000000 0.0000000000 0.0000000000 0.0000000000 0.0000000000 0.0000000000 0.0000000000 0.0000000000 0.0000000000 0.0000000000 0.0000000000 0.0000000000 0.0000000000 0.0000000000 0.0000000000 0.0000000000 0.0000000000 0.0000000000 0.0000000000 0.0000000000 0.0000000000 0.0000000000 0.0000000000 0.0000000000 0.0000000000 0.0000000000 0.0000000000 0.0000000000 0.0000000000 0.0000000000 0.0000000000 0.0000000000
        </DataArray>
        <DataArray type="Float32" Name="sliding spring" NumberOfComponents="3" format="ascii">
 0.0001661181 -0.0000375016 0.0000000000 0.0001633477 -0.0000355260 0.0000000000 0.0001627386 -0.0000353779 0.0000000000 0.0001590127 -0.0000334532 0.0000000000 0.0001665441 -0.0000378997 0.0000000000 0.0001573535 -0.0000327558 0.0000000000 0.0001576878 -0.0000328288 0.0000000000 0.0001657973 -0.0000375201 0.0000000000 0.0001549160 -0.0000314767 0.0000000000 0.0001626962 -0.0000353113 0.0000000000 0.0001597433 -0.0000340109 0.0000000000 0.0001578432 -0.0000330164 0.0000000000 0.0001677182 -0.0000399662 0.0000000000 0.0001617347 -0.0000350067 0.0000000000 0.0001645087 -0.0000365273 0.0000000000 0.0001661885 -0.0000381255 0.0000000000
        </DataArray>
      </PointData>
    </Piece>
  </UnstructuredGrid>
</VTKFile>
