<?xml version="1.0"?>
<VTKFile type="UnstructuredGrid" version="0.1" byte_order="LittleEndian">
  <UnstructuredGrid>
    <FieldData>
      <DataArray type="Float32" Name="TIME"  NumberOfTuples="1" format="ascii"> 0.3000000000 </DataArray>
      <DataArray type="Int32"   Name="STEP"  NumberOfTuples="1" format="ascii"> 30000 </DataArray>
    </FieldData>
    <Piece NumberOfPoints="2004" NumberOfCells="2004">
      <Points>
        <DataArray type="Float32" NumberOfComponents="3" format="ascii">
 0.0313103223 0.9996987796 -0.0738293743 -0.0407289530 0.9986854556 -0.0368502331 0.0058697274 0.9961399499 -0.1441580608 0.0505305282 0.9964631781 -0.0074656437 -0.0940350239 0.9995081013 -0.0904471124 0.0883493487 0.9974168967 -0.1302074185 -0.0298436449 0.9908727793 0.0358245700 -0.0565724522 0.9911946697 -0.1822321522 0.1227399368 0.9982079171 -0.0288523517 -0.1284092666 0.9976412346 -0.0210175989 0.0608559067 0.9873001571 -0.2044744970 0.0447215884 0.9845096969 0.0699290351 -0.1377609493 0.9951237165 -0.1535487822 0.1616683214 0.9987961811 -0.1093987388 -0.0979947616 0.9855324252 0.0649836365 -0.0226604114 0.9778768291 -0.2466557731 0.1388767187 0.9895922766 0.0435510558 -0.1897367534 0.9996505392 -0.0660682689 0.1361298098 0.9863040174 -0.2095487762 -0.0093872626 0.9717152936 0.1207739746 -0.1297207840 0.9821598720 -0.2290109986 0.2084430774 0.9991110249 -0.0456817427 -0.1755763243 0.9887906390 0.0480063322 0.0466313895 0.9677647437 -0.2822640868 0.1087487452 0.9729172452 0.1166365770 -0.2188922380 0.9961992928 -0.1436485384 0.2114717014 0.9927769527 -0.1716151571 -0.0897399784 0.9659424263 0.1396028782 -0.0798438761 0.9636189805 -0.2951677791 0.2174444657 0.9900825850 0.0406985876 -0.2440632317 0.9966649400 -0.0096767730 0.1343067504 0.9674975793 -0.2830897023 0.0418757275 0.9546345182 0.1721645653 -0.2063160950 0.9811268037 -0.2334875690 0.2683715132 0.9993435860 -0.0960131166 -0.1810985457 0.9715077916 0.1214305337 0.0010462345 0.9481134629 -0.3373417460 0.1832619945 0.9693902654 0.1286535805 -0.2847551996 0.9991876309 -0.1002937551 0.2255401852 0.9782371125 -0.2451586675 -0.0500425066 0.9439969008 0.1989246897 -0.1518431369 0.9567766044 -0.3148133707 0.2888364134 0.9950567129 0.0055056173 -0.2679804721 0.9858362641 0.0634004707 0.1010974960 0.9440612437 -0.3471651200 0.1108190262 0.9438163139 0.1994058374 -0.2821877926 0.9867065303 -0.2075384863 0.3032650415 0.9932836230 -0.1673351779 -0.1553749544 0.9474585336 0.1905034048 -0.0642777396 0.9330523007 -0.3721641091 0.2621285323 0.9740296477 0.1127092226 -0.3311972135 0.9980078195 -0.0327132171 0.2087084121 0.9550855775 -0.3192820416 0.0110678540 0.9246238678 0.2413193504 -0.2320690275 0.9588162176 -0.3091744375 0.3465671889 0.9983529471 -0.0559909110 -0.2618158260 0.9651237902 0.1420573471 0.0449050829 0.9208176880 -0.3972982970 0.1908787282 0.9418725676 0.2040091256 -0.3502206073 0.9935846657 -0.1544723996 0.3097239214 0.9769673650 -0.2493797957 -0.1050385560 0.9209776128 0.2485467555 -0.1429021320 0.9261229819 -0.3867348659 0.3387924238 0.9835443897 0.0701522435 -0.3517239429 0.9865518870 0.0504840940 0.1655407419 0.9266673156 -0.3855198374 0.0872602508 0.9120985796 0.2655368540 -0.3149097327 0.9686968330 -0.2784523854 0.3806148460 0.9887038961 -0.1372748646 -0.2276316676 0.9363218037 0.2165002825 -0.0280412140 0.9025930337 -0.4310076011 0.2771945371 0.9494646309 0.1855577504 -0.3960871201 0.9816861905 -0.0778385118 0.2869191731 0.9502455790 -0.3317270050 -0.0361308203 0.8972430717 0.2917429037 -0.2303981061 0.9292409757 -0.3803150537 0.3972624088 0.9734810051 0.0006150465 -0.3430912460 0.9643298338 0.1393597306 0.1016447216 0.8982084381 -0.4385115081 0.1742173364 0.9093362622 0.2706296678 -0.3878855914 0.9685206207 -0.2198368367 0.3861087732 0.9668935379 -0.2288302316 -0.1701272318 0.9042355661 0.2796421988 -0.1132552088 0.8931416586 -0.4470676236 0.3626411476 0.9598687911 0.1414022145 -0.4091380094 0.9437345348 0.0116971696 0.2378306929 0.9165543292 -0.4054784673 0.0464948162 0.8807614842 0.3183891645 -0.3225258666 0.9417127121 -0.3510241566 0.4156187113 0.9160119059 -0.0868851174 -0.3056416856 0.9326173391 0.2238922394 0.0223178835 0.8748949433 -0.4757371444 0.2686458312 0.9176219915 0.2551199368 -0.4161872499 0.9019270826 -0.1341179055 0.3658161568 0.9450505272 -0.3231794317 -0.0949395322 0.8746031685 0.3277185660 -0.2076624906 0.8948082411 -0.4443334450 0.4099406668 0.9049755726 0.0615684760 -0.4028848991 0.9190990775 0.1072102663 0.1680461242 0.8818302133 -0.4650936309 0.1395266277 0.8747460718 0.3275795879 -0.3965119084 0.9208391751 -0.2872297337 0.4147182002 0.8709789362 -0.1788474745 -0.2433470712 0.8947682729 0.2958159840 -0.0685367222 0.8607714685 -0.4962813846 0.3633316566 0.9271350494 0.2136693284 -0.4194472959 0.8358124906 -0.0434515580 0.3165840003 0.9133848810 -0.4096001914 -0.0068072969 0.8523540601 0.3594311992 -0.3085418597 0.9078579434 -0.4206119775 0.4186878860 0.8196564535 -0.0308347108 -0.3793018404 0.9138111020 0.2077709929 0.0832419204 0.8519780622 -0.5083555823 0.2408130332 0.8810453989 0.3179993739 -0.4154879300 0.8224601465 -0.1922224626 0.4050722688 0.8592785338 -0.2768189691 -0.1628865986 0.8581958803 0.3513679043 -0.1685721382 0.8585348408 -0.4994423265 0.4062670668 0.8436459089 0.1238142957 -0.4153519180 0.8038610682 0.0494490364 0.2425598714 0.8726983855 -0.4789293655 0.0912436536 0.8410079215 0.3744676214 -0.3892991372 0.8792008425 -0.3561537509 0.4188738160 0.7679463964 -0.1219175319 -0.3231585539 0.8913994069 0.2977274475 -0.0124854024 0.8314786476 -0.5349655151 0.3457880619 0.8934599177 0.2844756017 -0.4200481132 0.7506015076 -0.0996737734 0.3822881796 0.8746448964 -0.3836015754 -0.0697953583 0.8288059120 0.3897982880 -0.2763608121 0.8695116048 -0.4835775842 0.4164914611 0.7508164719 0.0263744116 -0.4042908108 0.8047299600 0.1495816414 0.1527790598 0.8352792460 -0.5301489011 0.1977381231 0.8428067033 0.3721694632 -0.4102457698 0.7689877717 -0.2527656349 0.4134426610 0.7486712537 -0.2158400045 -0.2388006494 0.8490355733 0.3638015747 -0.1169868610 0.8233208931 -0.5449885404 0.3970210356 0.8053148732 0.1900330498 -0.4190043553 0.7122651746 -0.0084663521 0.3235007786 0.8685981990 -0.4793637288 0.0325952976 0.8105209019 0.4115766803 -0.3726948605 0.8535639142 -0.4288760511 0.4196379743 0.6936817187 -0.0656662964 -0.3812540180 0.8343403712 0.2613857220 0.0524878392 0.8071106816 -0.5639007759 0.3113170678 0.8571671817 0.3497129396 -0.4182105575 0.6914449830 -0.1564976298 0.4009391735 0.7593838105 -0.3181724914 -0.1408844343 0.8114902274 0.4104044894 -0.2295982093 0.8293646358 -0.5376429111 0.4117486466 0.7053095806 0.0858297350 -0.4123988859 0.7028220057 0.0866141511 0.2300685969 0.8258012522 -0.5418574471 0.1430173419 0.8058388613 0.4169501085 -0.4016955560 0.7369446850 -0.3173394749 0.4175719078 0.6661486777 -0.1572320044 -0.3209352721 0.8441010053 0.3634134025 -0.0558481425 0.7915161746 -0.5811774391 0.3826604961 0.7866817653 0.2620467046 -0.4202987573 0.6461041649 -0.0649950744 0.3763480330 0.7987281346 -0.4341978647 -0.0342890989 0.7850545157 0.4395652478 -0.3437406009 0.8349112965 -0.5024534785 0.4183738942 0.6413356068 -0.0092101498 -0.3982661340 0.7210688589 0.1913359227 0.1250601875 0.7889743210 -0.5838424337 0.2615335154 0.8162185552 0.4048133446 -0.4141692667 0.6516969037 -0.2151513637 0.4097491986 0.6647382860 -0.2536950611 -0.2194611290 0.8013830784 0.4218235948 -0.1718344137 0.7905736622 -0.5822278407 0.4041689275 0.6776870716 0.1489337229 -0.4172200982 0.6270731605 0.0270598952 0.3135195920 0.8203206415 -0.5413826824 0.0794484627 0.7724642398 0.4525868360 -0.3889944918 0.7220067121 -0.3875197271 0.4194679260 0.6057033170 -0.1004508264 -0.3712969902 0.7672890661 0.3114253679 0.0128931455 0.7648198377 -0.6086560604 0.3608961451 0.7827154838 0.3404711724 -0.4196311551 0.5986765468 -0.1213143639 0.3937977538 0.6893375435 -0.3609849114 -0.1082741884 0.7658437125 0.4591454857 -0.2956524965 0.8039188555 -0.5645740575 0.4150268046 0.6054700899 0.0486945643 -0.4081003164 0.6320868321 0.1251159366 0.2048116563 0.7780063704 -0.5953052196 0.2007881422 0.7754643212 0.4495773661 -0.4075214935 0.6271104794 -0.2769977151 0.4153505833 0.5938413980 -0.1932312904 -0.3043381332 0.7957510288 0.4219800816 -0.1058509382 0.7555435016 -0.6177136783 0.3928824155 0.6646502205 0.2172080726 -0.4197488634 0.5708754998 -0.0302193751 0.3638681411 0.7411674379 -0.4850357135 0.0088764353 0.7443171175 0.4797825449 -0.3704348614 0.7212938567 -0.4647605545 0.4193965625 0.5616976141 -0.0442485714 -0.3901299350 0.6618454235 0.2352585020 0.0882339939 0.7443938213 -0.6281551501 0.3247299951 0.7797173312 0.4187722957 -0.4169503994 0.5656165060 -0.1786722762 0.4048356865 0.6044685246 -0.2930918415 -0.1890887594 0.7537719331 0.4708381307 -0.2324507899 0.7626223711 -0.6108356153 0.4092452049 0.5827585659 0.1093745423 -0.4145521775 0.5648701327 0.0634614555 0.2911088240 0.7724099876 -0.5966743886 0.1323619044 0.7385605295 0.4851056674 -0.3975024789 0.6151809069 -0.3435225922 0.4185400361 0.5406517144 -0.1354481182 -0.3567327698 0.7180379779 0.3634456777 -0.0334429578 0.7258582613 -0.6448984653 0.3764425672 0.6642145084 0.2922210707 -0.4202748360 0.5294439267 -0.0865146927 0.3846242967 0.6389108972 -0.4062665038 -0.0677860735 0.7224830989 0.4993283668 -0.3427594294 0.7311460171 -0.5491061445 0.4173563744 0.5304990328 0.0126175079 -0.4025265872 0.5801532359 0.1653761385 0.1700155239 0.7310582380 -0.6402379158 0.2640508366 0.7493176980 0.4741362584 -0.4119746307 0.5442091051 -0.2383713020 0.4122110507 0.5398531710 -0.2302465188 -0.2766444195 0.7480432893 0.4736859564 -0.1615211123 0.7238135051 -0.6467275297 0.4003746371 0.5712117182 0.1742737924 -0.4184358155 0.5139949887 0.0049379240 0.3472520478 0.6989940506 -0.5385385941 0.0580788433 0.7071539669 0.5123846269 -0.3828623242 0.6144332282 -0.4163052964 0.4196687457 0.5009857928 -0.0790273023 -0.3798219314 0.6185114109 0.2818941991 0.0445343850 0.7025279799 -0.6646577150 0.3525189301 0.6747755723 0.3751964942 -0.41
[...]
      <PointData Scalars="material ID">
        <DataArray type="Int32" Name="material ID" format="ascii">
 0 0 0 0 0 0 0 0 0 0 0 0 0 0 0 0 0 0 0 0 0 0 0 0 0 0 0 0 0 0 0 0 0 0 0 0 0 0 0 0 0 0 0 0 0 0 0 0 0 0 0 0 0 0 0 0 0 0 0 0 0 0 0 0 0 0 0 0 0 0 0 0 0 0 0 0 0 0 0 0 0 0 0 0 0 0 0 0 0 0 0 0 0 0 0 0 0 0 0 0 0 0 0 0 0 0 0 0 0 0 0 0 0 0 0 0 0 0 0 0 0 0 0 0 0 0 0 0 0 0 0 0 0 0 0 0 0 0 0 0 0 0 0 0 0 0 0 0 0 0 0 0 0 0 0 0 0 0 0 0 0 0 0 0 0 0 0 0 0 0 0 0 0 0 0 0 0 0 0 0 0 0 0 0 0 0 0 0 0 0 0 0 0 0 0 0 0 0 0 0 0 0 0 0 0 0 0 0 0 0 0 0 0 0 0 0 0 0 0 0 0 0 0 0 0 0 0 0 0 0 0 0 0 0 0 0 0 0 0 0 0 0 0 0 0 0 0 0 0 0 0 0 0 0 0 0 0 0 0 0 0 0 0 0 0 0 0 0 0 0 0 0 0 0 0 0 0 0 0 0 0 0 0 0 0 0 0 0 0 0 0 0 0 0 0 0 0 0 0 0 0 0 0 0 0 0 0 0 0 0 0 0 0 0 0 0 0 0 0 0 0 0 0 0 0 0 0 0 0 0 0 0 0 0 0 0 0 0 0 0 0 0 0 0 0 0 0 0 0 0 0 0 0 0 0 0 0 0 0 0 0 0 0 0 0 0 0 0 0 0 0 0 0 0 0 0 0 0 0 0 0 0 0 0 0 0 0 0 0 0 0 0 0 0 0 0 0 0 0 0 0 0 0 0 0 0 0 0 0 0 0 0 0 0 0 0 0 0 0 0 0 0 0 0 0 0 0 0 0 0 0 0 0 0 0 0 0 0 0 0 0 0 0 0 0 0 0 0 0 0 0 0 0 0 0 0 0 0 0 0 0 0 0 0 0 0 0 0 0 0 0 0 0 0 0 0 0 0 0 0 0 0 0 0 0 0 0 0 0 0 0 0 0 0 0 0 0 0 0 0 0 0 0 0 0 0 0 0 0 0 0 0 0 0 0 0 0 0 0 0 0 0 0 0 0 0 0 0 0 0 0 0 0 0 0 0 0 0 0 0 0 0 0 0 0 0 0 0 0 0 0 0 0 0 0 0 0 0 0 0 0 0 0 0 0 0 0 0 0 0 0 0 0 0 0 0 0 0 0 0 0 0 0 0 0 0 0 0 0 0 0 0 0 0 0 0 0 0 0 0 0 0 0 0 0 0 0 0 0 0 0 0 0 0 0 0 0 0 0 0 0 0 0 0 0 0 0 0 0 0 0 0 0 0 0 0 0 0 0 0 0 0 0 0 0 0 0 0 0 0 0 0 0 0 0 0 0 0 0 0 0 0 0 0 0 0 0 0 0 0 0 0 0 0 0 0 0 0 0 0 0 0 0 0 0 0 0 0 0 0 0 0 0 0 0 0 0 0 0 0 0 0 0 0 0 0 0 0 0 0 0 0 0 0 0 0 0 0 0 0 0 0 0 0 0 0 0 0 0 0 0 0 0 0 0 0 0 0 0 0 0 0 0 0 0 0 0 0 0 0 0 0 0 0 0 0 0 0 0 0 0 0 0 0 0 0 0 0 0 0 0 0 0 0 0 0 0 0 0 0 0 0 0 0 0 0 0 0 0 0 0 0 0 0 0 0 0 0 0 0 0 0 0 0 0 0 0 0 0 0 0 0 0 0 0 0 0 0 0 0 0 0 0 0 0 0 0 0 0 0 0 0 0 0 0 0 0 0 0 0 0 0 0 0 0 0 0 0 0 0 0 0 0 0 0 0 0 0 0 0 0 0 0 0 0 0 0 0 0 0 0 0 0 0 0 0 0 0 0 0 0 0 0 0 0 0 0 0 0 0 0 0 0 0 0 0 0 0 0 0 0 0 0 0 0 0 0 0 0 0 0 0 0 0 0 0 0 0 0 0 0 0 0 0 0 0 0 0 0 0 0 0 0 0 0 0 0 0 0 0 0 0 0 0 0 0 0 0 0 0 0 0 0 0 0 0 0 0 0 0 0 0 0 0 0 0 0 0 0 0 0 0 0 0 0 0 0 0 0 0 0 0 0 0 0 0 0 0 0 0 0 0 0 0 0 0 0 0 0 0 0 0 0 0 0 0 0 0 0 0 0 0 0 0 0 0 0 0 0 0 0 0 0 0 0 0 0 0 0 0 0 0 0 0 0 0 0 0 0 0 0 0 0 0 0 0 0 0 0 0 0 0 0 0 0 0 0 0 0 0 0 0 0 0 0 0 0 0 0 0 0 0 0 0 0 0 0 0 0 0 0 0 0 0 0 0 0 0 0 0 0 0 0 0 0 0 0 0 0 0 0 0 0 0 0 0 0 0 0 0 0 0 0 0 0 0 0 0 0 0 0 0 0 0 0 0 0 0 0 0 0 0 0 0 0 0 0 0 0 0 0 0 0 0 0 0 0 0 0 0 0 0 0 0 0 0 0 0 0 0 0 0 0 0 0 0 0 0 0 0 0 0 0 0 0 0 0 0 0 0 0 0 0 0 0 0 0 0 0 0 0 0 0 0 0 0 0 0 0 0 0 0 0 0 0 0 0 0 0 0 0 0 0 0 0 0 0 0 0 0 0 0 0 0 0 0 0 0 0 0 0 0 0 0 0 0 0 0 0 0 0 0 0 0 0 0 0 0 0 0 0 0 0 0 0 0 0 0 0 0 0 0 0 0 0 0 0 0 0 0 0 0 0 0 0 0 0 0 0 0 0 0 0 0 0 0 0 0 0 0 0 0 0 0 0 0 0 0 0 0 0 0 0 0 0 0 0 0 0 0 0 0 0 0 0 0 0 0 0 0 0 0 0 0 0 0 0 0 0 0 0 0 0 0 0 0 0 0 0 0 0 0 0 0 0 0 0 0 0 0 0 0 0 0 0 0 0 0 0 0 0 0 0 0 0 0 0 0 0 0 0 0 0 0 0 0 0 0 0 0 0 0 0 0 0 0 0 0 0 0 0 0 0 0 0 0 0 0 0 0 0 0 0 0 0 0 0 0 0 0 0 0 0 0 0 0 0 0 0 0 0 0 0 0 0 0 0 0 0 0 0 0 0 0 0 0 0 0 0 0 0 0 0 0 0 0 0 0 0 0 0 0 0 0 0 0 0 0 0 0 0 0 0 0 0 0 0 0 0 0 0 0 0 0 0 0 0 0 0 0 0 0 0 0 0 0 0 0 0 0 0 0 0 0 0 0 0 0 0 0 0 0 0 0 0 0 0 0 0 0 0 0 0 0 0 0 0 0 0 0 0 0 0 0 0 0 0 0 0 0 0 0 0 0 0 0 0 0 0 0 0 0 0 0 0 0 0 0 0 0 0 0 0 0 0 0 0 0 0 0 0 0 0 0 0 0 0 0 0 0 0 0 0 0 0 0 0 0 0 0 0 0 0 0 0 0 0 0 0 0 0 0 0 0 0 0 0 0 0 0 0 0 0 0 0 0 0 0 0 0 0 0 0 0 0 0 0 0 0 0 0 0 0 0 0 0 0 0 0 0 0 0 0 0 0 0 0 0 0 0 0 0 0 0 0 0 0 0 0 0 0 0 0 0 0 0 0 0 0 0 0 0 0 0 0 0 0 0 0 0 0 0 0 0 0 0 0 0 0 0 0 0 0 0 0 0 0 0 0 0 0 0 0 0 0 0 0 0 0 0 0 0 0 0 0 0 0 0 0 0 0 0 0 0 0 0 0 0 0 0 0 0 0 0 0 0 0 0 0 0 0 0 0 0 0 0 0 0 0 0 0 0 0 0 0 0 0 0 0 0 0 0 0 0 0 0 0 0 0 0 0 0 0 0 0 0 0 0 0 0 0 0 0 0 0 0 0 0 0 0 0 0 0 0 0 0 0 0 0 0 0 0 0 0 0 0 0 0 0 0 0 0 0 0 0 0 0 0 0 0 0 0 0 0 0 0 0 0 0 0 0 0 0 0 0 0 0 0 0 0 0 0 0 0 0 0 0 0 0 0 0 0 0 0 0 0 0 0 0 0 0 0 0 0 0 0 0 0 0 0 0 0 0 0 0 0 0 0 0 0 0 0 0 0 0 0 0 0 0 0 0 0 0 0 0 0 0 0 0 0 0 0 0 0 0 0 0 0 0 0 0 0 0 0 0 0 0 0 0 0 0 0 0 0 0 0 0 0 0 0 0 0 0 0 0 0 0 0 0 0 0 0 0 0 0 0 0 0 0 0 0 0 0 0 0 0 0 0 0 0 0 0 0 0 0 0 0 0 0 0 0 0 0 0 0 0 0 0 0 0 0 0 0 0 0 0 0 0 0 0 0 0 0 0 0 0 0 0 0 0 0 0 0 0 0 0 0 0 0 0 0 0 0 0
        </DataArray>
        <DataArray type="Float32" Name="velocity" NumberOfComponents="3" format="ascii">
 -0.0040392914 -0.0036732711 1.2024473199 -0.0039544613 -0.0034785138 1.2026179148 -0.0042005350 -0.0040463461 1.2025245265 -0.0038870297 -0.0033213079 1.2024203822 -0.0040774018 -0.0037633899 1.2027358158 -0.0041685595 -0.0039710659 1.2023285894 -0.0037876495 -0.0030932470 1.2026343464 -0.0042877782 -0.0042491209 1.2026939446 -0.0039361099 -0.0034334416 1.2022455215 -0.0039181312 -0.0033960648 1.2028245468 -0.0043387279 -0.0043650434 1.2024452532 -0.0037093244 -0.0029113066 1.2024970441 -0.0042220563 -0.0040984718 1.2028593351 -0.0041208566 -0.0038595974 1.2021531203 -0.0037206838 -0.0029398625 1.2028189516 -0.0044353174 -0.0045899285 1.2026867340 -0.0037699073 -0.0030495263 1.2022541633 -0.0040214901 -0.0036357886 1.2029545575 -0.0043503496 -0.0043906907 1.2022778873 -0.0035924983 -0.0026427822 1.2026889399 -0.0043949189 -0.0044981967 1.2029095871 -0.0039747238 -0.0035212047 1.2020441719 -0.0037596757 -0.0030310996 1.2029796240 -0.0045168202 -0.0047774673 1.2025813916 -0.0036020075 -0.0026627590 1.2024116205 -0.0041993673 -0.0040473493 1.2030397144 -0.0042634537 -0.0041884477 1.2020707884 -0.0035492182 -0.0025443359 1.2029038218 -0.0045463471 -0.0048479248 1.2028934361 -0.0037764577 -0.0030633465 1.2020713664 -0.0038921044 -0.0033378778 1.2030949779 -0.0045187094 -0.0047803976 1.2023817196 -0.0034743502 -0.0023696304 1.2026618730 -0.0044051691 -0.0045231790 1.2030907361 -0.0040901650 -0.0037869120 1.2019054909 -0.0035909891 -0.0026421322 1.2030838674 -0.0046428197 -0.0050700625 1.2027900710 -0.0035743878 -0.0025978559 1.2022594095 -0.0040999803 -0.0038187072 1.2031749397 -0.0044318897 -0.0045779064 1.2021155650 -0.0034127993 -0.0022293489 1.2029290582 -0.0045912925 -0.0049532086 1.2030948260 -0.0038572564 -0.0032486499 1.2018812688 -0.0037243198 -0.0029510519 1.2032072119 -0.0046652833 -0.0051204660 1.2025820705 -0.0034116928 -0.0022241492 1.2025610715 -0.0043457456 -0.0043869306 1.2032351857 -0.0042536457 -0.0041642567 1.2018575713 -0.0034321709 -0.0022757068 1.2031523008 -0.0047224383 -0.0052556546 1.2030197004 -0.0036110334 -0.0026810421 1.2020539423 -0.0039449617 -0.0034613783 1.2032877082 -0.0046015137 -0.0049709469 1.2022768443 -0.0033152459 -0.0020037023 1.2028915520 -0.0045783929 -0.0049246510 1.2032680205 -0.0039983559 -0.0035735550 1.2017313945 -0.0035435753 -0.0025341653 1.2033028238 -0.0047798832 -0.0053870362 1.2028341128 -0.0034011029 -0.0021984383 1.2023877503 -0.0042241493 -0.0041068662 1.2033547765 -0.0044415501 -0.0045988863 1.2019292137 -0.0032986095 -0.0019673188 1.2031771683 -0.0047557428 -0.0053341572 1.2032367461 -0.0037087966 -0.0029052789 1.2018276936 -0.0037539560 -0.0030208726 1.2033954896 -0.0047529651 -0.0053226373 1.2025264334 -0.0032594956 -0.0018741239 1.2027831698 -0.0045080932 -0.0047632266 1.2034056644 -0.0041846255 -0.0040036995 1.2017044328 -0.0033723624 -0.0021391457 1.2033770360 -0.0048568968 -0.0055668561 1.2030979870 -0.0034435471 -0.0022947859 1.2021495522 -0.0040481898 -0.0037015562 1.2035230209 -0.0046299771 -0.0050356014 1.2021231102 -0.0031991460 -0.0017372969 1.2031448891 -0.0047410701 -0.0053015816 1.2034209007 -0.0038681176 -0.0032727776 1.2017469135 -0.0035497493 -0.0025497984 1.2034934398 -0.0048740351 -0.0056044809 1.2028237791 -0.0032477694 -0.0018457056 1.2025983665 -0.0043736528 -0.0044538383 1.2035739717 -0.0043942528 -0.0044887403 1.2018074004 -0.0032270147 -0.0018036234 1.2034151646 -0.0048935755 -0.0056533584 1.2033435100 -0.0035449913 -0.0025273484 1.2018984471 -0.0038422102 -0.0032273417 1.2037540510 -0.0047985745 -0.0054272025 1.2024142194 -0.0031377600 -0.0015947430 1.2030427155 -0.0046740955 -0.0051478935 1.2035661152 -0.0040678566 -0.0037361188 1.2020093283 -0.0033553475 -0.0021012626 1.2035755848 -0.0049590298 -0.0058030382 1.2031292520 -0.0032834783 -0.0019263324 1.2023378861 -0.0041759552 -0.0040000992 1.2039917471 -0.0046102873 -0.0049890098 1.2019696837 -0.0031162611 -0.0015476388 1.2033997335 -0.0048873320 -0.0056404261 1.2035512068 -0.0037271894 -0.0029495902 1.2020808302 -0.0036227405 -0.0027211363 1.2038702470 -0.0049347326 -0.0057442396 1.2027582689 -0.0031165822 -0.0015445123 1.2028612170 -0.0045274360 -0.0048110802 1.2038464098 -0.0042780347 -0.0042234215 1.2022500132 -0.0031897634 -0.0017191285 1.2036332629 -0.0050059163 -0.0059133943 1.2034124684 -0.0033787039 -0.0021444098 1.2020703121 -0.0039669183 -0.0035197323 1.2043495505 -0.0048079757 -0.0054477451 1.2022503891 -0.0030431601 -0.0013781487 1.2033154910 -0.0048331407 -0.0055163934 1.2037134310 -0.0039377148 -0.0034390698 1.2025128549 -0.0033920125 -0.0021878991 1.2038441779 -0.0050334642 -0.0059748722 1.2031109512 -0.0031386587 -0.0015936069 1.2025955331 -0.0043079115 -0.0043079707 1.2044112206 -0.0045025442 -0.0047427094 1.2023341344 -0.0030617499 -0.0014234458 1.2036425118 -0.0050131292 -0.0059317916 1.2036537558 -0.0035834152 -0.0026198241 1.2024142279 -0.0037533200 -0.0030274055 1.2045094610 -0.0049663151 -0.0058163244 1.2026357556 -0.0030084864 -0.0012968586 1.2031507271 -0.0046848305 -0.0051761742 1.2040504992 -0.0041457656 -0.0039216941 1.2027864284 -0.0031853239 -0.0017103150 1.2038341651 -0.0050941576 -0.0061174494 1.2034391281 -0.0032157516 -0.0017695124 1.2022889861 -0.0040944628 -0.0038176511 1.2048024424 -0.0047477084 -0.0053089018 1.2023049679 -0.0029731238 -0.0012182781 1.2035847335 -0.0049769235 -0.0058495038 1.2038428108 -0.0038053688 -0.0031359677 1.2028826600 -0.0035236754 -0.0024966431 1.2044794878 -0.0050831730 -0.0060892044 1.2030399477 -0.0030137870 -0.0013072815 1.2028969457 -0.0044458891 -0.0046286889 1.2046825356 -0.0043608637 -0.0044194577 1.2029010196 -0.0030330818 -0.0013588133 1.2038651627 -0.0051170114 -0.0061722809 1.2037220333 -0.0034309078 -0.0022690981 1.2026385416 -0.0038846426 -0.0033343463 1.2050031841 -0.0049672438 -0.0058172925 1.2024718397 -0.0029228727 -0.0011011923 1.2034467838 -0.0048512002 -0.0055612398 1.2041482608 -0.0040155272 -0.0036236189 1.2031781876 -0.0032677353 -0.0019038388 1.2042697529 -0.0051601205 -0.0062697004 1.2034192293 -0.0030655287 -0.0014244023 1.2025603540 -0.0042238163 -0.0041187177 1.2051116850 -0.0045957447 -0.0049619005 1.2028729336 -0.0029255772 -0.0011102617 1.2038395316 -0.0051002635 -0.0061352133 1.2039482884 -0.0036682554 -0.0028210054 1.2031346687 -0.0036664154 -0.0028304272 1.2050380714 -0.0051098710 -0.0061499720 1.2029129023 -0.0029104714 -0.0010709005 1.2032183347 -0.0045934644 -0.0049707103 1.2048327144 -0.0042250839 -0.0041088390 1.2033288176 -0.0030338908 -0.0013622233 1.2040796895 -0.0051994884 -0.0063630304 1.2037503348 -0.0032654341 -0.0018877506 1.2027702108 -0.0040132039 -0.0036339006 1.2053567252 -0.0048625026 -0.0055770980 1.2027208578 -0.0028582601 -0.0009539891 1.2037351270 -0.0050196462 -0.0059506330 1.2041806889 -0.0038851799 -0.0033244913 1.2034584571 -0.0034265316 -0.0022752972 1.2049089712 -0.0052055588 -0.0063741711 1.2033488817 -0.0029384786 -0.0011332578 1.2028915125 -0.0043576866 -0.0044294440 1.2053130322 -0.0044463033 -0.0046201039 1.2033542327 -0.0028992204 -0.0010510490 1.2040733065 -0.0052018820 -0.0063705072 1.2040213490 -0.0035230683 -0.0024867565 1.2032984186 -0.0038017579 -0.0031460713 1.2054505051 -0.0051086918 -0.0061460814 1.2027505440 -0.0028281870 -0.0008831168 1.2035409775 -0.0047541800 -0.0053423705 1.2048827368 -0.0040938577 -0.0038079371 1.2036447554 -0.0031518623 -0.0016385259 1.2046022057 -0.0052620721 -0.0065075009 1.2037341313 -0.0030854985 -0.0014725555 1.2028411449 -0.0041415934 -0.0039323128 1.2056065023 -0.0046927829 -0.0051888715 1.2032604722 -0.0028130353 -0.0008514568 1.2040066090 -0.0051616121 -0.0062790037 1.2042346185 -0.0037517818 -0.0030177223 1.2036561771 -0.0035769443 -0.0026263441 1.2054030222 -0.0052316686 -0.0064335958 1.2032240846 -0.0028351388 -0.0008970642 1.2032467824 -0.0044991291 -0.0047570444 1.2054280632 -0.0043064587 -0.0042996277 1.2037170523 -0.0028987687 -0.0010516182 1.2042978189 -0.0052826933 -0.0065574515 1.2040556297 -0.0033662631 -0.0021251720 1.2033933841 -0.0039322047 -0.0034496229 1.2057540838 -0.0049781533 -0.0058466820 1.2030544822 -0.0027653486 -0.0007401756 1.2038519831 -0.0049313238 -0.0057513465 1.2048439467 -0.0039642301 -0.0035101351 1.2038780954 -0.0033248174 -0.0020424273 1.2052041222 -0.0053064577 -0.0066095809 1.2036695663 -0.0029058618 -0.0010582513 1.2029399802 -0.0042726019 -0.0042361954 1.2057755316 -0.0045356687 -0.0048289396 1.2036848580 -0.0027860188 -0.0007908316 1.2042559267 -0.0052670348 -0.0065230920 1.2043084831 -0.0036122352 -0.0026962880 1.2037897807 -0.0037172443 -0.0029531436 1.2057739860 -0.0052347166 -0.0064394290 1.2030558119 -0.0027530449 -0.0007099350 1.2035992662 -0.0046515105 -0.0051093797 1.2054682962 -0.0041730539 -0.0039933951 1.2039915773 -0.0030317398 -0.0013626421 1.2048297725 -0.0053445539 -0.0067003047 1.2040468540 -0.0031942100 -0.0017279658 1.2034333984 -0.0040606381 -0.0037479278 1.2059748267 -0.0047958076 -0.0054289597 1.2035487114 -0.0027201596 -0.0006378697 1.2041435058 -0.0051249367 -0.0061978188 1.2047282674 -0.0038332911 -0.0032088482 1.2040480889 -0.0034837500 -0.0024129225 1.2056654230 -0.0053339503 -0.0066722574 1.2035526588 -0.0027783810 -0.0007658898 1.2032402315 -0.0044091717 -0.0045524451 1.2058775524 -0.0043904654 -0.0044958148 1.2040103245 -0.0027793928 -0.0007771841 1.2044870946 -0.0053487152 -0.0067121066 1.2043514420 -0.0034631955 -0.0023525476 1.2038713100 -0.0038506327 -0.0032633107 1.2060524693 -0.0051001698 -0.0061304555 1.2033160593 -0.0026899619 -0.0005666138 1.2039360542 -0.0048184288 -0.0054947977 1.2054386801 -0.0040429966 -0.0036944153 1.2041991694 -0.0032171422 -0.0017951454 1.2054100975 -0.0053894883 -0.0068037198 1.2039916311 -0.0030040760 -0.0012886919 1.2034323077 -0.0041898721 -0.0040476077 1.2061294794 -0.0046297104 -0.0050480216 1.2039379258 -0.0026911833 -0.0005728504 1.2044114146 -0.0053034033 -0.0066093249 1.2046162637 -0.0036980722 -0.0028973100 1.2041674758 -0.0036302282 -0.0027538513 1.2060163353 -0.0053437563 -0.0066936928 1.2033829278 -0.0026933525 -0.0005721933 1.2036222970 -0.0045545026 -0.0048885077 1.2059200509 -0.0042536755 -0.0041815896 1.2042608971 -0.0029051387 -0.0010712339 1.2049798212 -0.0054114094 -0.0068569561 1.2043524520 -0.0033010655 -0.0019782529 1.2039093941 -0.0039801566 -0.0035640357 1.2062593680 -0.0049056645 -0.0056843752 1.2037733352 -0.0026436523 -0.0004618824 1.2042503078 -0.0050032176 -0.0059210068 1.2053401384 -0.0039133617 -0.0033960353 1.2043543766 -0.0033858704 -0.0021881738 1.2058578142 -0.0054191477 -0.0068714863 1.2038864631 -0.0027998702 -0.0008168558 1.2034239294 -0.0043227701 -0.0043553528 1.2062285098 -0.0044777788 -0.0046991900 1.2042407655 -0.0026782331 -0.0005446829 1.2046552112 -0.0054008637 -0.0068346355 1.2046368974 -0.0035554110 -0.0025682767 1.2042449097 -0.0037677045 -0.0030733800 1.2062832682 -0.0052289180 -0.0064294600 1.2035329672 -0.0026287481 -0.0004255649 1.2039879988 -0.0047120897 -0.0052524796 1.2059059772 -0.0041220583 -0.0038788999 1.2044537252 -0.0031026349 -0.0015316230 1.2055525817 -0.0054577146 -0.0069636204 1.2043086738 -0.0031222898 -0.0015652461 1.2039118954 -0.0041086927 -0.0038620648 1.2064086751 -0.0047292255 -0.0052793769 1.2041391903 -0.0026122644 -0.0003914407 1.2045390024 -0.0052070847 -0.0063908035 1.2051735307 -0.0037812516 -0.0030916324 1.2044672207 -0.0035398521 -0.0025463852 1.2062013911 -0.0054343164 -0.0069053872 1.2037272770 -0.0026489878 -0.0004696713 1.2036186304 -0.0044623767 -0.0046782401 1.2062778715 -0.0043363583 -0.0043741634 1.2044769496 -0.0027728252 -0.0007662295 1.2050743384 -0.0054655932 -0.0069842645 1.2046486739 -0.0034018689 -0.0022138487 1.2042866514 -0.0038994061 -0.0033790973 1.2064847962 -0.0050229477 -0.0059566523 1.2039568101 -0.0025807000 -0.0003169981 1.2043274724 -0.0048855455 -0.0056527035 1.2058349151 -0.0039926151 -0.0035809053 1.2046009334 -0.0032823804 -0.0019500943 1.2059988658 -0.0054897402 -0.0070369532 1.2042173876 -0.0029244325 -0.0011079760 1.2038894849 -0.0042390724 -0.0041640048 1.2065094992 -0.0045691541 -0.0049116360 1.2044275884 -0.0025946732 -0.0003526860 1.2048015722 -0.0054117184 -0.0068621316 1.2049735800 -0.0036436497 -0.0027742878 1.2045447153 -0.0036826452 -0.0028781736 1.2064650720 -0.0053619311 -0.0067381817 1.2037308938 -0.0025791082 -0.0003110276 1.2040082621 -0.0046120162 -0.0050239672 1.2062800161 -0.0042020340 -0.0040651578 1.2046611652 -0.0029807679 -0.0012507525 1.2056470199 -0.0055137354 -0.0070952619 1.2046172855 -0.0032338092 -0.0018256633 1.2042981262 -0.0040283185 -0.0036779933 1.2066337569 -0.0048350261 -0.0055249987 1.2043049944 -0.0025468477 -0.0002410252 1.2046387516 -0.0050778483 -0.0060960434 1.2057045013 -0.0038624605 -0.0032810012 1.2047111373 -0.0034452425 -0.0023288302 1.2063435455 -0.0055088903 -0.0070801718 1.2040748564 -0.0027101900 -0.0006128363 1.2038649831 -0.0043742225 -0.0044766569 1.2065673077 -0.0044217985 -0.0045728339 1.2046549087 -0.0026398347 -0.0004594112 1.2051341130 -0.0055092572 -0.0070872013 1.2049354321 -0.0034972993 -0.0024365144 1.2045919718 -0.0038176613 -0.0031915479 1.2066664881 -0.0051478510 -0.0062463531 1.2041151327 -0.0025289277 -0.0001977345 1.2043756138 -0.0047752755 -0.0054008178 1.2062345257 -0.0040716818 -0.0037650327 1.2048041594 -0.0031724194 -0.0016967786 1.2061000571 -0.0055480756 -0.0071740474 1.2045406547 -0.0030479018 -0.0013960748 1.2042859914 -0.0041572943 -0.0039767202 1.2067387951 -0.0046654060 -0.0051351256 1.2045833681 -0.0025255490 -0.0001938561 1.2049223326 -0.0052891483 -0.0065828373 1.2055135546 -0.0037286753 -0.0029724877 1.2047905144 -0.0035946602 -0.0026759407 1.2066096462 -0.0054885802 -0.0070323316 1.2039470918 -0.0025428111 -0.0002271587 1.2040066066 -0.0045172923 -0.0048073153 1.2065846600 -0.0042835773 -0.0042547894 1.2048341225 -0.0028516076 -0.0009527606 1.2057036297 -0.0055597198 -0.0072036470 1.2049162436 -0.0033386665 -0.0020701781 1.2046132157 -0.0039480376 -0.0034938451 1.2068181497 -0.0049478464 -0.0057866667 1.2044469311 -0.0024927069 -0.0001164650 1.2047112577 -0.0049556690 -0.0058168922 1.2061387547 -0.0039423713 -0.0034670744 1.2049137724 -0.0033455082 -0.0020991931 1.2064519840 -0.0055705099 -0.0072249823 1.2044160536 -0.0028426690 -0.0009217510 1.2042616081 -0.0042891911 -0.0042819191 1.2068053794 -0.0045107490 -0.0047794141 1.2048050018 -0.0025262158 -0.0001973759 1.2051978755 -0.0055042648 -0.0070781568 1.2052819945 -0.0035881673 -0.0026482541 1.2048436121 -0.0037341909 -0.0029997702 1.2068145795 -0.0052797838 -0.0065522088 1.2042615482 -0.0024863676 -0.0000995491 1.2043952450 -0.0046717227 -0.0051639298 1.2065616281 -0.0041512019 -0.0039499754 1.2049750873 -0.0030552963 -0.0014266838 1.2061688736 -0.0055962550 -0.0072876073 1.2048540345 -0.0031641369 -0.0016669621 1.2046130862 -0.0040767003 -0.0037918885 1.2069287180 -0.0047673787 -0.0053716733 1.2047170852 -0.0024682963 -0.0000622646 1.2050168791 -0.0051555034 -0.0062774945 1.2059891623 -0.0038112267 -0.0031646803 1.2049957463 -0.0035029219 -0.0024648253 1.2067247936 -0.0055796020 -0.0072447562 1.2042446227 -0.0026227520 -0.0004135814 1.2042482163 -0.0044270113 -0.0046005478 1.2068364294 -0.0043673805 -0.0044494570 1.2049813370 -0.0027162940 -0.0006403369 1.2057301930 -0.0055973775 -0.0072927289 1.2052060093 -0.0034375736 -0.0023005568 1.2048740737 -0.0038671497 -0.0033080681 1.2069710113 -0.0050681790 -0.0060655857 1.2045743024 -0.0024478872 -0.0000132489 1.2047573249 -0.0048411433 -0.0055548710 1.2064961057 -0.0040216431 -0.0036514470 1.2050851837 -0.0032397688 -0.0018554844 1.2065328060 -0.0056214153 -0.0073449659 1.2047469487 -0.0029708170 -0.0012202329 1.2045987713 -0.0042064919 -0.0040922857 1.2070039186 -0.0046040156 -0.0049958188 1.2049346161 -0.0024547612 -0.0000329999 1.2052960632 -0.0053729272 -0.0067783397 1