<?xml version="1.0"?>
<VTKFile type="UnstructuredGrid" version="0.1" byte_order="LittleEndian">
  <UnstructuredGrid>
    <FieldData>
      <DataArray type="Float32" Name="TIME"  NumberOfTuples="1" format="ascii"> 0.6500000000 </DataArray>
      <DataArray type="Int32"   Name="STEP"  NumberOfTuples="1" format="ascii"> 65000 </DataArray>
    </FieldData>
    <Piece NumberOfPoints="2004" NumberOfCells="2004">
      <Points>
        <DataArray type="Float32" NumberOfComponents="3" format="ascii">
 0.0298682625 0.9983987283 -0.1860990681 -0.0422133842 0.9973195276 -0.1492044557 0.0045083291 0.9949663961 -0.2564631652 0.0490123224 0.9950438070 -0.1197192546 -0.0954579425 0.9982388209 -0.2028608748 0.0869719022 0.9962176769 -0.2424156619 -0.0314114796 0.9893762664 -0.0765313635 -0.0578901665 0.9900899630 -0.2946176690 0.1212462223 0.9968264178 -0.1410199606 -0.1299118050 0.9962475227 -0.1334742970 0.0595636052 0.9862345336 -0.3167322739 0.0431145545 0.9829513946 -0.0423528814 -0.1391114878 0.9939680911 -0.2660204265 0.1602669675 0.9975590466 -0.2215204597 -0.0995960241 0.9839840579 -0.0474601195 -0.0239043282 0.9768875917 -0.3590261662 0.1372999043 0.9880806423 -0.0686136824 -0.1911875697 0.9983381841 -0.1785915953 0.1348432735 0.9852469518 -0.3217219957 -0.0110526460 0.9700660993 0.0084069053 -0.1309848453 0.9811397310 -0.3414965319 0.2069686139 0.9977591145 -0.1577493949 -0.1771580462 0.9872733297 -0.0645205153 0.0454282143 0.9668389595 -0.3945730857 0.1070880360 0.9712746060 0.0044071709 -0.2202540725 0.9950264856 -0.2562113265 0.2101416420 0.9916511944 -0.2836904251 -0.0914269356 0.9642600206 0.0271332386 -0.0810321902 0.9627173119 -0.4076292540 0.2158708739 0.9885754917 -0.0713751509 -0.2455787066 0.9952517177 -0.1222678986 0.1331044631 0.9665726300 -0.3952986206 0.0401512766 0.9528926799 0.0598254995 -0.2075749770 0.9801152701 -0.3460627978 0.2669547392 0.9980816224 -0.2080115024 -0.1827645703 0.9698586882 0.0088661473 -0.0000938440 0.9472869617 -0.4497381954 0.1815874344 0.9677254995 0.0165032754 -0.2861667008 0.9979374448 -0.2129268158 0.2242943900 0.9772433508 -0.3572437451 -0.0517976464 0.9422077006 0.0864610339 -0.1530089076 0.9559107607 -0.4273696683 0.2873031659 0.9936122870 -0.1064772257 -0.2695798053 0.9842919964 -0.0492376999 0.0999685970 0.9432516511 -0.4594540714 0.1090632278 0.9420250605 0.0871263552 -0.2834763573 0.9856489467 -0.3201907738 0.3019300155 0.9921494988 -0.2793042640 -0.1571203476 0.9456852304 0.0779251747 -0.0653779158 0.9322888444 -0.4846624507 0.2604722325 0.9723929258 0.0006577410 -0.3326862022 0.9966366106 -0.1454018164 0.2075475205 0.9542250961 -0.4314278341 0.0092639460 0.9227581103 0.1288908962 -0.2332412022 0.9579408368 -0.4218190994 0.3451044546 0.9970185309 -0.1679014808 -0.2635054895 0.9634382500 0.0293888707 0.0438335974 0.9200985827 -0.5096933275 0.1891175870 0.9400724584 0.0918179661 -0.3515699549 0.9924322724 -0.2671904848 0.3084829055 0.9759805637 -0.3613705901 -0.1068506966 0.9190997399 0.1359785692 -0.1439855814 0.9253862857 -0.4993357966 0.3371849352 0.9819835138 -0.0417941247 -0.3533084028 0.9850314339 -0.0622488110 0.1644556988 0.9259261559 -0.4977660270 0.0854284495 0.9101887866 0.1531732388 -0.3161170369 0.9677668750 -0.3911743859 0.3792452669 0.9875152220 -0.2491635280 -0.2294068899 0.9345023649 0.1038191185 -0.0290740857 0.9019350358 -0.5435189501 0.2754545425 0.9476970081 0.0734792667 -0.3975243965 0.9803965283 -0.1906307459 0.2857724781 0.9494068771 -0.4437917582 -0.0379926769 0.8952871515 0.1792110274 -0.2314888446 0.9284933920 -0.4930107522 0.3957345841 0.9720445953 -0.1112821751 -0.3447777663 0.9626497405 0.0265966162 0.1006203479 0.8975629647 -0.5508819721 0.1723796219 0.9074166845 0.1583608150 -0.3891600780 0.9674859346 -0.3326429858 0.3848440839 0.9658692830 -0.3407515554 -0.1719750840 0.9023023570 0.1669692217 -0.1142696547 0.8925131483 -0.5596936456 0.3609517967 0.9581798189 0.0294405183 -0.4106781730 0.9422842328 -0.1011783942 0.2367684400 0.9158484951 -0.5176598612 0.0446022553 0.8787571255 0.2059223950 -0.3236500733 0.9409131858 -0.4638031887 0.4141909266 0.9147325950 -0.1988642961 -0.3074253546 0.9307852077 0.1111149327 0.0213361336 0.8743169477 -0.5882403762 0.2668258877 0.9157295563 0.1429743037 -0.4175603887 0.9007387700 -0.2470763058 0.3646595785 0.9441958997 -0.4351630438 -0.0968427332 0.8725831107 0.2150784985 -0.2086800016 0.8941755158 -0.5570647599 0.4083425575 0.9034297130 -0.0504373725 -0.4045347474 0.9174772366 -0.0057025855 0.1670521078 0.8812320144 -0.5774172898 0.1376234326 0.8727245298 0.2152086966 -0.3977093471 0.9199256608 -0.4001312554 0.4133956525 0.8698648602 -0.2909083526 -0.2452134762 0.8928065739 0.1830419888 -0.0694949243 0.8602310630 -0.6089141393 0.3615592436 0.9253163401 0.1016494732 -0.4209247753 0.8344614807 -0.1565326391 0.3155264061 0.9126858720 -0.5216969425 -0.0087470475 0.8502764337 0.2468521849 -0.3095864422 0.9071833414 -0.5334356130 0.4171952982 0.8182766141 -0.1429835426 -0.3810670709 0.9120084978 0.0948754645 0.0822974200 0.8514582327 -0.6208300204 0.2389207932 0.8790403031 0.2057559870 -0.4167948499 0.8213763072 -0.3053226444 0.4038620338 0.8583404955 -0.3889117010 -0.1648169672 0.8561338794 0.2386203857 -0.1695266610 0.8580008552 -0.6121938257 0.4045972398 0.8419883878 0.0116939498 -0.4169361233 0.8023432390 -0.0636849405 0.2415816262 0.8721244980 -0.5911839300 0.0892865319 0.8389025845 0.2619806551 -0.3904177500 0.8784111230 -0.4691216222 0.4174854200 0.7667302151 -0.2341588103 -0.3250271168 0.8894348706 0.1848558586 -0.0133994287 0.8310073478 -0.6475865017 0.3439342692 0.8915142311 0.1723749867 -0.4214615624 0.7493516092 -0.2129084474 0.3812005163 0.8738987731 -0.4956926002 -0.0717700228 0.8266742529 0.2771046706 -0.2773334015 0.8689499069 -0.5964330335 0.4149328913 0.7493340177 -0.0859006997 -0.4059898662 0.8030322190 0.0364616841 0.1518594206 0.8347980680 -0.6425735242 0.1957835769 0.8407047032 0.2598078756 -0.4114835381 0.7680127096 -0.3659556985 0.4121618905 0.7476238194 -0.3281219153 -0.2407452777 0.8469518188 0.2509505078 -0.1178893662 0.8228683795 -0.6577440119 0.3952750603 0.8035385598 0.0778331098 -0.4205226204 0.7108515306 -0.1217688848 0.3225229566 0.8680244997 -0.5915328212 0.0305954895 0.8083494033 0.2989676115 -0.3737302118 0.8529047156 -0.5418707549 0.4181846641 0.6923646297 -0.1780401989 -0.3830811648 0.8324416227 0.1483451104 0.0516068276 0.8066909057 -0.6764909389 0.3093882800 0.8551046485 0.2375074616 -0.4195591491 0.6902972167 -0.2698363072 0.3997758390 0.7585202308 -0.4304492718 -0.1428827787 0.8093221150 0.2975981928 -0.2305090332 0.8288997530 -0.6505167041 0.4101216447 0.7037204588 -0.0265326774 -0.4140262586 0.7012375726 -0.0266979805 0.2291622855 0.8253405455 -0.6542104186 0.1410112731 0.8036569038 0.3044592667 -0.4028594376 0.7360855798 -0.4305771318 0.4162234738 0.6649960916 -0.2696575155 -0.3228794275 0.8420185631 0.2504592707 -0.0567093505 0.7911282521 -0.6939198244 0.3808318346 0.7847762585 0.1497966669 -0.4217525386 0.6447921573 -0.1784177827 0.3753180004 0.7980730437 -0.5464319274 -0.0363211005 0.7828332880 0.3268336674 -0.3446916809 0.8343840519 -0.6154483048 0.4168555531 0.6399172217 -0.1216796393 -0.4000135298 0.7192962216 0.0780725326 0.1242019036 0.7885898511 -0.6963818864 0.2595413443 0.8140575011 0.2924771026 -0.4154507999 0.6506545082 -0.3285566568 0.4085114009 0.6637589985 -0.3661318583 -0.2214725728 0.7991950557 0.3089089977 -0.1726943456 0.7901884852 -0.6951049459 0.4024694058 0.6759847216 0.0365128662 -0.4187795658 0.6255958389 -0.0863936690 0.3126126520 0.8198584740 -0.6536497841 0.0774013841 0.7702188059 0.3399630655 -0.3900779680 0.7212735741 -0.5007694846 0.4180540429 0.6044488408 -0.2129828464 -0.3731818943 0.7653004857 0.1982756446 0.0120632666 0.7644807990 -0.7213674852 0.3589775275 0.7806693014 0.2281888711 -0.4210205942 0.5974657548 -0.2348213544 0.3926831543 0.6885510166 -0.4733955824 -0.1103287014 0.7635878985 0.3462945034 -0.2965325239 0.8035028680 -0.6775692481 0.4134418603 0.6039477960 -0.0638433068 -0.4097722290 0.6304333358 0.0116816137 0.2039664087 0.7776419146 -0.7077728734 0.1987444514 0.7732233900 0.3370981600 -0.4087322272 0.6261791444 -0.3904393982 0.4140430547 0.5927535962 -0.3057891250 -0.3063497307 0.7935633617 0.3089580205 -0.1066703998 0.7552216224 -0.7305779347 0.3911045242 0.6628253608 0.1047507029 -0.4212429325 0.5695011557 -0.1437766356 0.3628961183 0.7406038321 -0.5973873485 0.0067980607 0.7420234099 0.3670272209 -0.3714297619 0.7206992998 -0.5779901301 0.4179179834 0.5603422756 -0.1568598312 -0.3919280292 0.6599939407 0.1218979839 0.0874263211 0.7440892769 -0.7408168023 0.3227215774 0.7775307997 0.3064429518 -0.4182742297 0.5645087569 -0.2922354347 0.4036427569 0.6035601234 -0.4056424240 -0.1911566945 0.7514957372 0.3578727523 -0.2332780193 0.7622890642 -0.7238323770 0.4075905461 0.5811273760 -0.0032108857 -0.4161537296 0.5633275181 -0.0501008426 0.2902650602 0.7720473617 -0.7090531120 0.1302773124 0.7362563584 0.3724816238 -0.3986369819 0.6143689894 -0.4569740575 0.4171659469 0.5394602018 -0.2480979499 -0.3586776111 0.7159559457 0.2502240901 -0.0342314457 0.7255847159 -0.7577329243 0.3745786479 0.6622550548 0.1797438926 -0.4217045575 0.5281707542 -0.2001468362 0.3835613702 0.6382058408 -0.5187781552 -0.0698869323 0.7201548909 0.3864458589 -0.3436575550 0.7307027163 -0.6622860928 0.4158124074 0.5290416336 -0.1000522508 -0.4042449571 0.5784274786 0.0518548489 0.1692215846 0.7307748101 -0.7528296914 0.2619787968 0.7470322359 0.3616825982 -0.4132301064 0.5432085675 -0.3519670638 0.4109456908 0.5388319553 -0.3429048283 -0.2787155940 0.7457626356 0.3606098621 -0.1623074290 0.7235441948 -0.7597125550 0.3986454862 0.5694640597 0.0616573059 -0.4199705126 0.5125575874 -0.1087200628 0.3463411763 0.6985267217 -0.6509849049 0.0559628450 0.7048014052 0.3996189194 -0.3839133624 0.6137519145 -0.5297411478 0.4182297321 0.4996930094 -0.1917472040 -0.3816737526 0.6165761686 0.1684675737 0.0437683843 0.7022893814 -0.7774445927 0.3505599139 0.6726
[...]
      <PointData Scalars="material ID">
        <DataArray type="Int32" Name="material ID" format="ascii">
 0 0 0 0 0 0 0 0 0 0 0 0 0 0 0 0 0 0 0 0 0 0 0 0 0 0 0 0 0 0 0 0 0 0 0 0 0 0 0 0 0 0 0 0 0 0 0 0 0 0 0 0 0 0 0 0 0 0 0 0 0 0 0 0 0 0 0 0 0 0 0 0 0 0 0 0 0 0 0 0 0 0 0 0 0 0 0 0 0 0 0 0 0 0 0 0 0 0 0 0 0 0 0 0 0 0 0 0 0 0 0 0 0 0 0 0 0 0 0 0 0 0 0 0 0 0 0 0 0 0 0 0 0 0 0 0 0 0 0 0 0 0 0 0 0 0 0 0 0 0 0 0 0 0 0 0 0 0 0 0 0 0 0 0 0 0 0 0 0 0 0 0 0 0 0 0 0 0 0 0 0 0 0 0 0 0 0 0 0 0 0 0 0 0 0 0 0 0 0 0 0 0 0 0 0 0 0 0 0 0 0 0 0 0 0 0 0 0 0 0 0 0 0 0 0 0 0 0 0 0 0 0 0 0 0 0 0 0 0 0 0 0 0 0 0 0 0 0 0 0 0 0 0 0 0 0 0 0 0 0 0 0 0 0 0 0 0 0 0 0 0 0 0 0 0 0 0 0 0 0 0 0 0 0 0 0 0 0 0 0 0 0 0 0 0 0 0 0 0 0 0 0 0 0 0 0 0 0 0 0 0 0 0 0 0 0 0 0 0 0 0 0 0 0 0 0 0 0 0 0 0 0 0 0 0 0 0 0 0 0 0 0 0 0 0 0 0 0 0 0 0 0 0 0 0 0 0 0 0 0 0 0 0 0 0 0 0 0 0 0 0 0 0 0 0 0 0 0 0 0 0 0 0 0 0 0 0 0 0 0 0 0 0 0 0 0 0 0 0 0 0 0 0 0 0 0 0 0 0 0 0 0 0 0 0 0 0 0 0 0 0 0 0 0 0 0 0 0 0 0 0 0 0 0 0 0 0 0 0 0 0 0 0 0 0 0 0 0 0 0 0 0 0 0 0 0 0 0 0 0 0 0 0 0 0 0 0 0 0 0 0 0 0 0 0 0 0 0 0 0 0 0 0 0 0 0 0 0 0 0 0 0 0 0 0 0 0 0 0 0 0 0 0 0 0 0 0 0 0 0 0 0 0 0 0 0 0 0 0 0 0 0 0 0 0 0 0 0 0 0 0 0 0 0 0 0 0 0 0 0 0 0 0 0 0 0 0 0 0 0 0 0 0 0 0 0 0 0 0 0 0 0 0 0 0 0 0 0 0 0 0 0 0 0 0 0 0 0 0 0 0 0 0 0 0 0 0 0 0 0 0 0 0 0 0 0 0 0 0 0 0 0 0 0 0 0 0 0 0 0 0 0 0 0 0 0 0 0 0 0 0 0 0 0 0 0 0 0 0 0 0 0 0 0 0 0 0 0 0 0 0 0 0 0 0 0 0 0 0 0 0 0 0 0 0 0 0 0 0 0 0 0 0 0 0 0 0 0 0 0 0 0 0 0 0 0 0 0 0 0 0 0 0 0 0 0 0 0 0 0 0 0 0 0 0 0 0 0 0 0 0 0 0 0 0 0 0 0 0 0 0 0 0 0 0 0 0 0 0 0 0 0 0 0 0 0 0 0 0 0 0 0 0 0 0 0 0 0 0 0 0 0 0 0 0 0 0 0 0 0 0 0 0 0 0 0 0 0 0 0 0 0 0 0 0 0 0 0 0 0 0 0 0 0 0 0 0 0 0 0 0 0 0 0 0 0 0 0 0 0 0 0 0 0 0 0 0 0 0 0 0 0 0 0 0 0 0 0 0 0 0 0 0 0 0 0 0 0 0 0 0 0 0 0 0 0 0 0 0 0 0 0 0 0 0 0 0 0 0 0 0 0 0 0 0 0 0 0 0 0 0 0 0 0 0 0 0 0 0 0 0 0 0 0 0 0 0 0 0 0 0 0 0 0 0 0 0 0 0 0 0 0 0 0 0 0 0 0 0 0 0 0 0 0 0 0 0 0 0 0 0 0 0 0 0 0 0 0 0 0 0 0 0 0 0 0 0 0 0 0 0 0 0 0 0 0 0 0 0 0 0 0 0 0 0 0 0 0 0 0 0 0 0 0 0 0 0 0 0 0 0 0 0 0 0 0 0 0 0 0 0 0 0 0 0 0 0 0 0 0 0 0 0 0 0 0 0 0 0 0 0 0 0 0 0 0 0 0 0 0 0 0 0 0 0 0 0 0 0 0 0 0 0 0 0 0 0 0 0 0 0 0 0 0 0 0 0 0 0 0 0 0 0 0 0 0 0 0 0 0 0 0 0 0 0 0 0 0 0 0 0 0 0 0 0 0 0 0 0 0 0 0 0 0 0 0 0 0 0 0 0 0 0 0 0 0 0 0 0 0 0 0 0 0 0 0 0 0 0 0 0 0 0 0 0 0 0 0 0 0 0 0 0 0 0 0 0 0 0 0 0 0 0 0 0 0 0 0 0 0 0 0 0 0 0 0 0 0 0 0 0 0 0 0 0 0 0 0 0 0 0 0 0 0 0 0 0 0 0 0 0 0 0 0 0 0 0 0 0 0 0 0 0 0 0 0 0 0 0 0 0 0 0 0 0 0 0 0 0 0 0 0 0 0 0 0 0 0 0 0 0 0 0 0 0 0 0 0 0 0 0 0 0 0 0 0 0 0 0 0 0 0 0 0 0 0 0 0 0 0 0 0 0 0 0 0 0 0 0 0 0 0 0 0 0 0 0 0 0 0 0 0 0 0 0 0 0 0 0 0 0 0 0 0 0 0 0 0 0 0 0 0 0 0 0 0 0 0 0 0 0 0 0 0 0 0 0 0 0 0 0 0 0 0 0 0 0 0 0 0 0 0 0 0 0 0 0 0 0 0 0 0 0 0 0 0 0 0 0 0 0 0 0 0 0 0 0 0 0 0 0 0 0 0 0 0 0 0 0 0 0 0 0 0 0 0 0 0 0 0 0 0 0 0 0 0 0 0 0 0 0 0 0 0 0 0 0 0 0 0 0 0 0 0 0 0 0 0 0 0 0 0 0 0 0 0 0 0 0 0 0 0 0 0 0 0 0 0 0 0 0 0 0 0 0 0 0 0 0 0 0 0 0 0 0 0 0 0 0 0 0 0 0 0 0 0 0 0 0 0 0 0 0 0 0 0 0 0 0 0 0 0 0 0 0 0 0 0 0 0 0 0 0 0 0 0 0 0 0 0 0 0 0 0 0 0 0 0 0 0 0 0 0 0 0 0 0 0 0 0 0 0 0 0 0 0 0 0 0 0 0 0 0 0 0 0 0 0 0 0 0 0 0 0 0 0 0 0 0 0 0 0 0 0 0 0 0 0 0 0 0 0 0 0 0 0 0 0 0 0 0 0 0 0 0 0 0 0 0 0 0 0 0 0 0 0 0 0 0 0 0 0 0 0 0 0 0 0 0 0 0 0 0 0 0 0 0 0 0 0 0 0 0 0 0 0 0 0 0 0 0 0 0 0 0 0 0 0 0 0 0 0 0 0 0 0 0 0 0 0 0 0 0 0 0 0 0 0 0 0 0 0 0 0 0 0 0 0 0 0 0 0 0 0 0 0 0 0 0 0 0 0 0 0 0 0 0 0 0 0 0 0 0 0 0 0 0 0 0 0 0 0 0 0 0 0 0 0 0 0 0 0 0 0 0 0 0 0 0 0 0 0 0 0 0 0 0 0 0 0 0 0 0 0 0 0 0 0 0 0 0 0 0 0 0 0 0 0 0 0 0 0 0 0 0 0 0 0 0 0 0 0 0 0 0 0 0 0 0 0 0 0 0 0 0 0 0 0 0 0 0 0 0 0 0 0 0 0 0 0 0 0 0 0 0 0 0 0 0 0 0 0 0 0 0 0 0 0 0 0 0 0 0 0 0 0 0 0 0 0 0 0 0 0 0 0 0 0 0 0 0 0 0 0 0 0 0 0 0 0 0 0 0 0 0 0 0 0 0 0 0 0 0 0 0 0 0 0 0 0 0 0 0 0 0 0 0 0 0 0 0 0 0 0 0 0 0 0 0 0 0 0 0 0 0 0 0 0 0 0 0 0 0 0 0 0 0 0 0 0 0 0 0 0 0 0 0 0 0 0 0 0 0 0 0 0 0 0 0 0 0 0 0 0 0 0 0 0 0 0 0 0 0 0 0 0 0 0 0 0 0 0 0 0 0 0 0 0 0 0 0 0 0 0 0 0 0 0 0 0 0 0 0 0 0 0 0 0 0 0 0 0 0 0 0 0 0 0 0 0 0 0 0 0 0 0 0 0 0 0 0 0 0 0 0 0 0 0 0 0 0 0 0 0 0 0 0 0 0 0 0 0 0 0 0 0 0 0 0 0 0 0 0 0 0 0 0 0 0 0 0 0 0 0 0 0 0 0 0 0 0 0 0 0 0 0 0 0 0 0 0 0 0 0 0 0 0 0 0 0 0 0 0 0 0 0 0 0 0 0 0 0 0 0
        </DataArray>
        <DataArray type="Float32" Name="velocity" NumberOfComponents="3" format="ascii">
 -0.0088825134 -0.0038328941 1.7554038539 -0.0083687829 -0.0037845676 1.7564089518 -0.0098618705 -0.0039372657 1.7557619154 -0.0079581171 -0.0037347906 1.7551422146 -0.0091158606 -0.0038666981 1.7571488879 -0.0096663939 -0.0039106273 1.7546120289 -0.0073564271 -0.0036779245 1.7562701346 -0.0103926950 -0.0039975070 1.7566377336 -0.0082548008 -0.0037603963 1.7541339727 -0.0081497061 -0.0037682333 1.7576314571 -0.0107002872 -0.0040209086 1.7550081477 -0.0068801101 -0.0036225645 1.7552419339 -0.0099948526 -0.0039619490 1.7577628553 -0.0093755898 -0.0038747039 1.7535896560 -0.0069512909 -0.0036406991 1.7572272577 -0.0112884054 -0.0040887573 1.7561838066 -0.0072460994 -0.0036537482 1.7539232085 -0.0087779893 -0.0038385303 1.7584814984 -0.0107696805 -0.0040225324 1.7539615366 -0.0061724626 -0.0035527034 1.7560148186 -0.0110446752 -0.0040712553 1.7576683975 -0.0084877792 -0.0037783339 1.7529391807 -0.0071890535 -0.0036713577 1.7583022920 -0.0117825392 -0.0041353272 1.7552331874 -0.0062282378 -0.0035496729 1.7543682950 -0.0098583689 -0.0039537462 1.7588909873 -0.0102406821 -0.0039615033 1.7529039005 -0.0059113179 -0.0035314569 1.7571422510 -0.0119639992 -0.0041638197 1.7569997812 -0.0072845819 -0.0036518804 1.7528286168 -0.0079936151 -0.0037605834 1.7592432308 -0.0117926202 -0.0041298120 1.7540129398 -0.0054553217 -0.0034739848 1.7553269632 -0.0111081703 -0.0040836460 1.7587361831 -0.0091875563 -0.0038470340 1.7521035796 -0.0061660535 -0.0035649054 1.7584057073 -0.0125490865 -0.0042190760 1.7558954224 -0.0060595689 -0.0035264733 1.7533362772 -0.0092559768 -0.0038956517 1.7598043888 -0.0112636171 -0.0040675577 1.7527278469 -0.0050836989 -0.0034420877 1.7566226437 -0.0122383166 -0.0041979626 1.7580117590 -0.0077736532 -0.0036976451 1.7518267959 -0.0069760615 -0.0036560290 1.7595933365 -0.0126840493 -0.0042257249 1.7545082220 -0.0050744225 -0.0034290614 1.7543833922 -0.0107483928 -0.0040516579 1.7597848293 -0.0101796549 -0.0039482357 1.7516252900 -0.0052027964 -0.0034624130 1.7580838901 -0.0130341805 -0.0042748293 1.7568261540 -0.0062805215 -0.0035436362 1.7522312398 -0.0083157911 -0.0038008024 1.7604539313 -0.0122946883 -0.0041768468 1.7529945194 -0.0044915292 -0.0033757205 1.7558008638 -0.0121611933 -0.0041958932 1.7591258028 -0.0086290618 -0.0037827643 1.7510171214 -0.0058798533 -0.0035410703 1.7595391386 -0.0133817486 -0.0043030956 1.7553234555 -0.0050089592 -0.0034162285 1.7532717128 -0.0100110272 -0.0039795779 1.7607229551 -0.0113209767 -0.0040672572 1.7515576069 -0.0043925799 -0.0033741022 1.7574227485 -0.0132379466 -0.0043020901 1.7579305881 -0.0068722585 -0.0035997085 1.7511492729 -0.0071572587 -0.0036812529 1.7607579357 -0.0132161326 -0.0042766847 1.7536356587 -0.0041525264 -0.0033346493 1.7547588003 -0.0117352918 -0.0041574775 1.7602652969 -0.0097596859 -0.0038985467 1.7505556500 -0.0048414607 -0.0034301221 1.7591065545 -0.0138513101 -0.0043578205 1.7563649333 -0.0052648435 -0.0034364636 1.7520586194 -0.0089442544 -0.0038715290 1.7613802639 -0.0124664587 -0.0041889889 1.7519124823 -0.0037889094 -0.0033059817 1.7564987799 -0.0131501217 -0.0042994379 1.7591442904 -0.0078389315 -0.0036965149 1.7503486142 -0.0059186681 -0.0035512284 1.7606717658 -0.0139534909 -0.0043588219 1.7545656845 -0.0040800968 -0.0033205772 1.7535522964 -0.0109203921 -0.0040777136 1.7612826169 -0.0110331590 -0.0040315061 1.7505092257 -0.0039598665 -0.0033338521 1.7583538771 -0.0140757892 -0.0043877615 1.7575647537 -0.0058787401 -0.0034941885 1.7508530540 -0.0076960352 -0.0037422460 1.7616188945 -0.0134923407 -0.0043002357 1.7526435911 -0.0034157926 -0.0032608912 1.7553729595 -0.0127444227 -0.0042638111 1.7604092793 -0.0090539607 -0.0038226768 1.7501751267 -0.0047396092 -0.0034253452 1.7601981468 -0.0144718551 -0.0044191695 1.7557033384 -0.0042949321 -0.0033359052 1.7522253022 -0.0097241231 -0.0039552321 1.7617752117 -0.0123459385 -0.0041705099 1.7508217987 -0.0032878579 -0.0032581593 1.7573511587 -0.0140393142 -0.0043910097 1.7588767209 -0.0069867024 -0.0036069620 1.7502730085 -0.0063649542 -0.0036027447 1.7615694916 -0.0143216935 -0.0043924857 1.7536645991 -0.0032860558 -0.0032403951 1.7540866967 -0.0118564040 -0.0041766372 1.7614709022 -0.0103320420 -0.0039567797 1.7502515392 -0.0037353885 -0.0033159351 1.7593873363 -0.0147586210 -0.0044560849 1.7569884086 -0.0048709781 -0.0033889855 1.7508924560 -0.0084585993 -0.0038236261 1.7619185701 -0.0135483082 -0.0043002115 1.7515517224 -0.0028438301 -0.0032052842 1.7561571689 -0.0137113225 -0.0043641622 1.7602626049 -0.0082687546 -0.0037410728 1.7502737679 -0.0049642889 -0.0034545145 1.7612507369 -0.0149238572 -0.0044620603 1.7548879197 -0.0034181306 -0.0032465683 1.7526672295 -0.0105290844 -0.0040399985 1.7618801289 -0.0116955884 -0.0041002159 1.7504010498 -0.0029588729 -0.0032289704 1.7583214561 -0.0148041139 -0.0044683590 1.7583843060 -0.0061171000 -0.0035167612 1.7504146277 -0.0071635591 -0.0036881136 1.7619098134 -0.0145126711 -0.0044069476 1.7526402566 -0.0026323579 -0.0031759045 1.7548089015 -0.0128137815 -0.0042765609 1.7614298454 -0.0095342400 -0.0038738291 1.7503447955 -0.0037098829 -0.0033192760 1.7605034181 -0.0152948301 -0.0045081986 1.7562500011 -0.0038837984 -0.0032873095 1.7511870581 -0.0092370882 -0.0039057661 1.7620499883 -0.0131833665 -0.0042574189 1.7506938878 -0.0024208836 -0.0031659516 1.7570689513 -0.0145855116 -0.0044534874 1.7598692547 -0.0074688752 -0.0036581130 1.7504056660 -0.0057693617 -0.0035414502 1.7617564154 -0.0152253232 -0.0044885111 1.7539437343 -0.0026627426 -0.0031710862 1.7533236170 -0.0113692226 -0.0041279000 1.7618838975 -0.0108409695 -0.0040110660 1.7504467346 -0.0027865238 -0.0032167054 1.7593919077 -0.0154356337 -0.0045308230 1.7577165708 -0.0051934235 -0.0034211419 1.7506004060 -0.0079653504 -0.0037729697 1.7620929837 -0.0145172211 -0.0044013887 1.7515193560 -0.0021151325 -0.0031264399 1.7556704971 -0.0138246887 -0.0043812542 1.7612346650 -0.0087473783 -0.0037920515 1.7504433587 -0.0042139164 -0.0033767979 1.7613946500 -0.0156954172 -0.0045454193 1.7553803909 -0.0029742900 -0.0031950468 1.7517210330 -0.0100252158 -0.0039885272 1.7621095033 -0.0122663955 -0.0041610131 1.7506033058 -0.0021342706 -0.0031414373 1.7580842584 -0.0153354666 -0.0045287394 1.7592756870 -0.0066389301 -0.0035720164 1.7505390753 -0.0066410453 -0.0036340316 1.7620165416 -0.0153866240 -0.0044996636 1.7528812908 -0.0020383255 -0.0031101661 1.7541401137 -0.0122664940 -0.0042213614 1.7618103274 -0.0100208302 -0.0039256202 1.7505105192 -0.0027929930 -0.0032235772 1.7605425699 -0.0159368970 -0.0045789198 1.7569110409 -0.0041901349 -0.0033174244 1.7508288092 -0.0087490692 -0.0038555594 1.7622063086 -0.0138840797 -0.0043317512 1.7508862092 -0.0017252665 -0.0030908745 1.7566392740 -0.0148476527 -0.0044862281 1.7608573599 -0.0079587910 -0.0037100736 1.7505382415 -0.0051837758 -0.0034804046 1.7617951567 -0.0159709838 -0.0045689450 1.7543960771 -0.0022059217 -0.0031187312 1.7524747826 -0.0108397536 -0.0040737333 1.7621100380 -0.0113638607 -0.0040666933 1.7506196888 -0.0019760416 -0.0031308562 1.7591931395 -0.0159533259 -0.0045893394 1.7585271615 -0.0057591262 -0.0034807771 1.7506860017 -0.0074664635 -0.0037213224 1.7621928741 -0.0153784079 -0.0044925921 1.7517274719 -0.0015415325 -0.0030632301 1.7550743912 -0.0132426071 -0.0043226240 1.7616539534 -0.0092272627 -0.0038429480 1.7505732084 -0.0035137471 -0.0033033424 1.7613546088 -0.0163170281 -0.0046137368 1.7559923897 -0.0030984448 -0.0032049005 1.7511390475 -0.0095307767 -0.0039376447 1.7622650396 -0.0128590528 -0.0042240872 1.7508039464 -0.0014528887 -0.0030680811 1.7576976405 -0.0157101906 -0.0045730847 1.7602318565 -0.0071508930 -0.0036261027 1.7506381493 -0.0061014145 -0.0035778208 1.7620604285 -0.0161287494 -0.0045795548 1.7533015330 -0.0015816432 -0.0030583069 1.7533806681 -0.0116994553 -0.0041633492 1.7620521449 -0.0105184422 -0.0039784019 1.7506460815 -0.0019749370 -0.0031371468 1.7603830072 -0.0164445627 -0.0046360497 1.7576588931 -0.0048081274 -0.0033822546 1.7508633884 -0.0082611490 -0.0038050735 1.7623088597 -0.0145891774 -0.0044068884 1.7511428396 -0.0011626299 -0.0030291088 1.7560983969 -0.0143176358 -0.0044336822 1.7613951679 -0.0084426077 -0.0037612266 1.7506393348 -0.0045691894 -0.0034159758 1.7617689512 -0.0165862745 -0.0046364118 1.7549728755 -0.0020087502 -0.0030936571 1.7516483762 -0.0103276296 -0.0040210506 1.7622747996 -0.0119094176 -0.0041245972 1.7507751377 -0.0012907891 -0.0030572782 1.7588405437 -0.0163511802 -0.0046357161 1.7594112418 -0.0063050532 -0.0035382427 1.7507528450 -0.0069565246 -0.0036682725 1.7622469980 -0.0161461536 -0.0045749507 1.7521082238 -0.0010862610 -0.0030119102 1.7543877078 -0.0126248707 -0.0042594865 1.7619287971 -0.0097112666 -0.0038941525 1.7506802152 -0.0027868182 -0.0032266030 1.7612245392 -0.0168203951 -0.0046701656 1.7566935524 -0.0037640237 -0.0032742812 1.7510942934 -0.0090428413 -0.0038871997 1.7623754757 -0.0134870988 -0.0042908613 1.7510042580 -0.0008906429 -0.0030065776 1.7571978583 -0.0154919605 -0.0045543602 1.7609939532 -0.0076493821 -0.0036786559 1.7507142317 -0.0055382215 -0.0035189024 1.7620592132 -0.0167525209 -0.0046477751 1.7538535054 -0.0012374136 -0.0030177649 1.7525384567 -0.0111576214 -0.0041076593 1.7622355942 -0.0110311282 -0.0040326854 1.7507677289 -0.0012522531 -0.0030598552 1.7600678946 -0.0168478027 -0.0046826486 1.7584796077 -0.0054010791 -0.0034444460 1.7508943640 -0.0077688204 -0.0037539254 1.7623740715 -0.0153322128 -0.0044861831 1.7514345955 -0.0007060957 -0.0029779606 1.7554681272 -0.0136378935 -0.0043643532 1.7617247124 -0.0089237664 -0.0038120095 1.7507233178 -0.0039175896 -0.0033473882 1.7616894195 -0.0170930763 -0.0046930251 1.7556415576 -0.0026097345 -0.0031552575 1.7514135208 -0.0098287804 -0.0039695330 1.7623980663 -0.0124826195 -0.0041853769 1.7509276052 -0.0007168123 -0.0029947085 1.7583706410 -0.0165744890 -0.0046640613 1.7603373995 -0.0068296868 -0.0035933978 1.7508042540 -0.0064306335 -0.0036133643 1.7622658831 -0.0168109456 -0.0046472984 1.7526298321 -0.0007244691 -0.0029699270 1.7536190198 -0.0120402476 -0.0041994815 1.7621421036 -0.0102031865 -0.0039461264 1.7507763227 -0.0020198553 -0.0031452580 1.7610168432 -0.0172288098 -0.0047170466 1.7574661284 -0.0044172112 -0.0033425269 1.7510794657 -0.0085569952 -0.0038367962 1.7624530504 -0.0141560027 -0.0043619863 1.7512188822 -0.0004275063 -0.0029549622 1.7566091092 -0.0147587797 -0.0044799279 1.7614138578 -0.0081383249 -0.0037301433 1.7507778197 -0.0049459358 -0.0034567290 1.7620186317 -0.0172725959 -0.0047056689 1.7545021576 -0.0013698911 -0.0030281319 1.7518901170 -0.0106364467 -0.0040539070 1.7623775348 -0.0115632867 -0.0040889876 1.7508859902 -0.0006399971 -0.0029934228 1.7596242669 -0.0171667007 -0.0047207903 1.7593681784 -0.0059644044 -0.0035034986 1.7509179363 -0.0072676266 -0.0037016919 1.7624099113 -0.0161156616 -0.0045699686 1.7517752855 -0.0003353190 -0.0029353670 1.7547606357 -0.0129967583 -0.0042986776 1.7619827368 -0.0094060851 -0.0038628681 1.7507988220 -0.0032239326 -0.0032741163 1.7615569580 -0.0175099358 -0.0047406109 1.7563809679 -0.0033319318 -0.0032303689 1.7513331319 -0.0093386404 -0.0039187589 1.7624902116 -0.0130885473 -0.0042496228 1.7510880666 -0.0002392233 -0.0029417335 1.7578101530 -0.0159948863 -0.0046067582 1.7609550129 -0.0073374467 -0.0036467445 1.7508476015 -0.0058838126 -0.0035561012 1.7622540147 -0.0173636805 -0.0047085351 1.7532648573 -0.0004554938 -0.0029372662 1.7527785410 -0.0114843804 -0.0041422425 1.7623104725 -0.0107071100 -0.0039993379 1.7508690975 -0.0012177217 -0.0030597841 1.7607255750 -0.0175601885 -0.0047562065 1.7583013151 -0.0050327161 -0.0034068470 1.7510676438 -0.0080689615 -0.0037860234 1.7625045030 -0.0148695799 -0.0044379376 1.7514619683 -0.0000463984 -0.0029115309 1.7559467370 -0.0140490860 -0.0044074343 1.7617375437 -0.0086217384 -0.0037810189 1.7508352194 -0.0043191191 -0.0033907346 1.7619392639 -0.0177039592 -0.0047546703 1.7552226996 -0.0021305398 -0.0031066403 1.7516936197 -0.0101310297 -0.0040016322 1.7624877616 -0.0121196825 -0.0041478485 1.7510085864 -0.0001344085 -0.0029376134 1.7590813080 -0.0172354271 -0.0047327959 1.7602627922 -0.0065028847 -0.0035599367 1.7509386151 -0.0067530382 -0.0036479204 1.7624203406 -0.0169247871 -0.0046568297 1.7521883599 -0.0000345256 -0.0028997049 1.7539808720 -0.0123927871 -0.0042366079 1.7621884703 -0.0098935027 -0.0039142444 1.7508714205 -0.0024851668 -0.0031958142 1.7613666120 -0.0178526001 -0.0047807493 1.7571786434 -0.0040125910 -0.0033012393 1.7512720771 -0.0088528810 -0.0038683092 1.7625574967 -0.0137322821 -0.0043179189 1.7512662717 0.0001566407 -0.0028969196 1.7571776599 -0.0152153009 -0.0045274722 1.7613749922 -0.0078327124 -0.0036987650 1.7508873556 -0.0053108959 -0.0034959487 1.7622124978 -0.0178193729 -0.0047600505 1.7539796616 -0.0008295951 -0.0029734055 1.7522226415 -0.0109519825 -0.0040872716 1.7624441278 -0.0112274058 -0.0040542741 1.7509641176 -0.0004111887 -0.0029733128 1.7603345414 -0.0178275945 -0.0047890005 1.7591970385 -0.0056149161 -0.0034677056 1.7510599540 -0.0075744841 -0.0037344562 1.7625336209 -0.0156291525 -0.0045189333 1.7517483696 0.0002670950 -0.0028748212 1.7552191442 -0.0133834424 -0.0043392002 1.7619965201 -0.0091036051 -0.0038317216 1.7508905541 -0.0036526591 -0.0033203691 1.7618182196 -0.0180608227 -0.0047961784 1.7559988987 -0.0028838659 -0.0031847216 1.7515600715 -0.0096367811 -0.0039503891 1.7625726300 -0.0127053785 -0.0042098340 1.7511422855 0.0002837661 -0.0028905497 1.7584644258 -0.0164963223 -0.0046586354 1.7608482803 -0.0070213446 -0.0036142796 1.7509591091 -0.0062203448 -0.0035921266 1.7624069019 -0.0176954077 -0.0047402753 1.7527151581 0.0001854576 -0.0028721586 1.7531384832 -0.0118206421 -0.0041776486 1.7623535786 -0.0103901051 -0.0039665880 1.7509452297 -0.0017017968 -0.0031124865 1.7611094258 -0.0181342268 -0.0048147865 1.7580289799 -0.0046521237 -0.0033678864 1.7512256285 -0.0083673075 -0.0038177659 1.7626037997 -0.0144183872 -0.0043907972 1.7514723354 0.0004842924 -0.0028589166 1.7564849337 -0.0144776639 -0.0044521185 1.7617103357 -0.0083197041 -0.0037499162 1.7509264329 -0.0047065618 -0.0034323432 1.7621400236 -0.0181963459 -0.0048036321 1.7547502828 -0.0016376611 -0.0030566027 1.7519757762 -0.0104380605 -0.0040340841 1.7625500811 -0.0117687402 -0.0041114490 1.7510661998 0.0002776602 -0.0028984364 1.7598106418 -0.0178002250 -0.0047909021 1.7600819822 -0.0061689065 -0.0035256390 1.7510570288 -0.0070692188 -0.0036816507 1.7625423289 -0.0164312562 -0.0046047012 1.7520948235 0.0005249144 -0.0028435985 1.7544290365 -0.0127579007 -0.0042748895 1.7622050932 -0.0095879141 -0.0038826851 1.7509468600 -0.0029424351 -0.0032451697 1.7616496411 -0.0183559236 -0.0048314759 1.7568215391 -0.0035926029 -0.0032583051 1.7514574156 -0.0091493531 -0.0038997458 1.7626363768 -0.0133255818 -0.0042755260 1.7512939809 0.0006301047 -0.0028506899 1.7577898774 -0.0156894367 -0.0045766254 1.7612927291 -0.0075243975 -0.0036670191 1.7509811272 -0.0056645975 -0.0035337917 1.7623693827 -0.0182504679 -0.0048021179 1.7534175305 -0.0003023434 -0.0029202034 1.7525848570 -0.0112749739 -0.0041212851 1.7624863943 -0.0109001768 -0.0040203659 1.7510237452 -0.0008808215 -0.0030247993 1.7607731379 -0.0183651989 -0.0048438084 1.7589319440 -0.0052550141 -0.0034307672 1.7511915515 -0.0078777563 -0.0037667061 1.7626314416 -0.0151499370 -0.0044686413 1.7517178205 0.0007555942 -0.0028265164 1.7557380667 -0.0137857785 -0.0043811985 1.7619802933 -0.0088025175 -0.0038006383 1.7509669630 -0.0040655270 -0.0033647136 1.7620331722 -0.0185081658 -0.0048406258 1.7555631464 -0.0024188431 -0.0031373119 1.7517891234 -0.0099379276 -0.0039822164 1.7626332580 -0.0123360732 -0.0041714072 1.7511801269 0.0007101797 -0.0028496610 1.7591545448 -0.0170075344 -0.0047112614 1.760690695