<?xml version="1.0"?>
<VTKFile type="UnstructuredGrid" version="0.1" byte_order="LittleEndian">
  <UnstructuredGrid>
    <FieldData>
      <DataArray type="Float32" Name="TIME"  NumberOfTuples="1" format="ascii"> 1.0000000000 </DataArray>
      <DataArray type="Int32"   Name="STEP"  NumberOfTuples="1" format="ascii"> 100000 </DataArray>
    </FieldData>
    <Piece NumberOfPoints="80" NumberOfCells="80">
      <Points>
        <DataArray type="Float32" NumberOfComponents="3" format="ascii">
 0.0646663875 0.2005027384 -1.0000424018 -0.0026862573 0.1941061344 -1.0005845206 -0.0702219818 0.1889651907 -1.0009422723 0.0390088861 0.1849566231 -1.0013151741 -0.0284871064 0.1790863723 -1.0017696329 0.0807716572 0.1756624608 -1.0006000962 0.0132642118 0.1696844308 -1.0024583433 -0.0544790218 0.1642621697 -1.0028379852 0.0552160385 0.1607148915 -1.0030697017 -0.0125946912 0.1546421935 -1.0034854575 -0.0801180237 0.1485190509 -1.0008637276 0.0293518486 0.1454460655 -1.0040623372 -0.0385981521 0.1397836710 -1.0044043552 0.0711898211 0.1359004143 -1.0024539558 0.0034199127 0.1303912117 -1.0049335609 -0.0645170290 0.1245557976 -1.0035535869 0.0455551989 0.1213355015 -1.0053763009 -0.0226093221 0.1155070487 -1.0057000448 0.0195380382 0.1062877477 -1.0061246570 -0.0486865237 0.1005762172 -1.0056699156 0.0614918077 0.0967429437 -1.0039950640 -0.0065324235 0.0913889287 -1.0067400110 -0.0741902902 0.0850257303 -1.0019618045 0.0357285190 0.0822534351 -1.0069042622 -0.0326773505 0.0765805925 -1.0071510077 0.0771382319 0.0723121877 -1.0014049332 0.0096149787 0.0673837693 -1.0075323203 -0.0584959578 0.0613901400 -1.0044401699 0.0517086956 0.0579935070 -1.0053110346 -0.0165482843 0.0525793742 -1.0079025593 -0.0837630098 0.0462682092 -1.0001518726 0.0257918897 0.0434044983 -1.0076886963 -0.0425926173 0.0376568394 -1.0063426950 0.0674969401 0.0339741111 -1.0030713481 -0.0003728115 0.0286375066 -1.0083054617 -0.0682235992 0.0227707141 -1.0029743589 0.0418542434 0.0194353286 -1.0064035276 -0.0265348530 0.0138396349 -1.0076503985 0.0830460371 0.0102212215 -1.0002691913 0.0158135911 0.0047257737 -1.0081787810 -0.0524432023 -0.0009103440 -1.0052353551 0.0577642219 -0.0043705812 -1.0045228228 -0.0103799885 -0.0100442706 -1.0083500021 -0.0778591112 -0.0154906179 -1.0012939890 0.0319415374 -0.0191394606 -1.0072684602 -0.0364742649 -0.0247612368 -1.0069126183 0.0734671227 -0.0279974366 -1.0020654187 0.0058100508 -0.0339594765 -1.0082353013 -0.0622217061 -0.0393142219 -1.0039049455 0.0479523362 -0.0429277943 -1.0057539123 -0.0203706327 -0.0487608105 -1.0079504914 0.0219768669 -0.0579166601 -1.0077679775 -0.0463629043 -0.0633955070 -1.0059453128 0.0637894985 -0.0666229013 -1.0036504186 -0.0041855351 -0.0727153065 -1.0073761630 -0.0719155689 -0.0777607314 -1.0023564935 0.0380721535 -0.0819010806 -1.0067392305 -0.0302987246 -0.0876103504 -1.0068770729 0.0793995890 -0.0902122669 -1.0009787932 0.0119436262 -0.0967455319 -1.0065269635 -0.0561872364 -0.1022715772 -1.0047504934 0.0540241732 -0.1058679066 -1.0050115380 -0.0141192941 -0.1116343876 -1.0058808558 -0.0815127821 -0.1164628153 -1.0005957308 0.0279986735 -0.1209009569 -1.0054283546 -0.0401184736 -0.1266816641 -1.0051314436 0.0697809211 -0.1298167570 -1.0026910581 0.0019704136 -0.1357716012 -1.0046309339 -0.0659252282 -0.1415906965 -1.0032763995 0.0439615638 -0.1452268342 -1.0040711365 -0.0239468304 -0.1508137093 -1.0037282786 0.0179527200 -0.1600685570 -1.0031216052 -0.0497837998 -0.1660738573 -1.0027125122 0.0598100880 -0.1697616228 -1.0024286067 -0.0078979614 -0.1750947744 -1.0020627586 -0.0754924828 -0.1814147590 -1.0011615191 0.0338084212 -0.1845708018 -1.0013415264 -0.0336207897 -0.1903517103 -1.0008871595 0.0755020481 -0.1945004210 -1.0003901904 0.0080095227 -0.1995714049 -1.0001243046
        </DataArray>
      </Points>
      <Cells>
        <DataArray type="Int32" Name="connectivity" format="ascii">
 0 1 2 3 4 5 6 7 8 9 10 11 12 13 14 15 16 17 18 19 20 21 22 23 24 25 26 27 28 29 30 31 32 33 34 35 36 37 38 39 40 41 42 43 44 45 46 47 48 49 50 51 52 53 54 55 56 57 58 59 60 61 62 63 64 65 66 67 68 69 70 71 72 73 74 75 76 77 78 79
        </DataArray>
        <DataArray type="Int32" Name="offsets" format="ascii">
 1 2 3 4 5 6 7 8 9 10 11 12 13 14 15 16 17 18 19 20 21 22 23 24 25 26 27 28 29 30 31 32 33 34 35 36 37 38 39 40 41 42 43 44 45 46 47 48 49 50 51 52 53 54 55 56 57 58 59 60 61 62 63 64 65 66 67 68 69 70 71 72 73 74 75 76 77 78 79 80
        </DataArray>
        <DataArray type="UInt8" Name="types" format="ascii">
 1 1 1 1 1 1 1 1 1 1 1 1 1 1 1 1 1 1 1 1 1 1 1 1 1 1 1 1 1 1 1 1 1 1 1 1 1 1 1 1 1 1 1 1 1 1 1 1 1 1 1 1 1 1 1 1 1 1 1 1 1 1 1 1 1 1 1 1 1 1 1 1 1 1 1 1 1 1 1 1
        </DataArray>
      </Cells>
      <PointData Scalars="overlap">
        <DataArray type="Float32" Name="overlap" format="ascii">
 0.0000848035 0.0011690412 0.0018845445 0.0026303482 0.0035392657 0.0012001923 0.0049166867 0.0056759703 0.0061394035 0.0069709150 0.0017274552 0.0081246744 0.0088087104 0.0049079117 0.0098671218 0.0071071738 0.0107526019 0.0114000896 0.0122493140 0.0113398312 0.0079901279 0.0134800220 0.0039236091 0.0138085245 0.0143020153 0.0028098664 0.0150646405 0.0088803399 0.0106220692 0.0158051186 0.0003037452 0.0153773925 0.0126853900 0.0061426962 0.0166109234 0.0059487179 0.0128070552 0.0153007970 0.0005383826 0.0163575621 0.0104707101 0.0090456456 0.0167000042 0.0025879779 0.0145369204 0.0138252366 0.0041308374 0.0164706025 0.0078098910 0.0115078246 0.0159009828 0.0155359550 0.0118906256 0.0073008372 0.0147523260 0.0047129869 0.0134784610 0.0137541458 0.0019575865 0.0130539271 0.0095009868 0.0100230760 0.0117617116 0.0011914616 0.0108567093 0.0102628871 0.0053821162 0.0092618678 0.0065527989 0.0081422730 0.0074565572 0.0062432105 0.0054250244 0.0048572135 0.0041255173 0.0023230382 0.0026830529 0.0017743190 0.0007803808 0.0002486093
        </DataArray>
        <DataArray type="Float32" Name="contact normal" NumberOfComponents="3" format="ascii">
 0.0000000000 0.0000000000 1.0000000000 0.0000000000 0.0000000000 1.0000000000 0.0000000000 0.0000000000 1.0000000000 0.0000000000 0.0000000000 1.0000000000 0.0000000000 0.0000000000 1.0000000000 0.0000000000 0.0000000000 1.0000000000 0.0000000000 0.0000000000 1.0000000000 0.0000000000 0.0000000000 1.0000000000 0.0000000000 0.0000000000 1.0000000000 0.0000000000 0.0000000000 1.0000000000 0.0000000000 0.0000000000 1.0000000000 0.0000000000 0.0000000000 1.0000000000 0.0000000000 0.0000000000 1.0000000000 0.0000000000 0.0000000000 1.0000000000 0.0000000000 0.0000000000 1.0000000000 0.0000000000 0.0000000000 1.0000000000 0.0000000000 0.0000000000 1.0000000000 0.0000000000 0.0000000000 1.0000000000 0.0000000000 0.0000000000 1.0000000000 0.0000000000 0.0000000000 1.0000000000 0.0000000000 0.0000000000 1.0000000000 0.0000000000 0.0000000000 1.0000000000 0.0000000000 0.0000000000 1.0000000000 0.0000000000 0.0000000000 1.0000000000 0.0000000000 0.0000000000 1.0000000000 0.0000000000 0.0000000000 1.0000000000 0.0000000000 0.0000000000 1.0000000000 0.0000000000 0.0000000000 1.0000000000 0.0000000000 0.0000000000 1.0000000000 0.0000000000 0.0000000000 1.0000000000 0.0000000000 0.0000000000 1.0000000000 0.0000000000 0.0000000000 1.0000000000 0.0000000000 0.0000000000 1.0000000000 0.0000000000 0.0000000000 1.0000000000 0.0000000000 0.0000000000 1.0000000000 0.0000000000 0.0000000000 1.0000000000 0.0000000000 0.0000000000 1.0000000000 0.0000000000 0.0000000000 1.0000000000 0.0000000000 0.0000000000 1.0000000000 0.0000000000 0.0000000000 1.0000000000 0.0000000000 0.0000000000 1.0000000000 0.0000000000 0.0000000000 1.0000000000 0.0000000000 0.0000000000 1.0000000000 0.0000000000 0.0000000000 1.0000000000 0.0000000000 0.0000000000 1.0000000000 0.0000000000 0.0000000000 1.0000000000 0.0000000000 0.0000000000 1.0000000000 0.0000000000 0.0000000000 1.0000000000 0.0000000000 0.0000000000 1.0000000000 0.0000000000 0.0000000000 1.0000000000 0.0000000000 0.0000000000 1.0000000000 0.0000000000 0.0000000000 1.0000000000 0.0000000000 0.0000000000 1.0000000000 0.0000000000 0.0000000000 1.0000000000 0.0000000000 0.0000000000 1.0000000000 0.0000000000 0.0000000000 1.0000000000 0.0000000000 0.0000000000 1.0000000000 0.0000000000 0.0000000000 1.0000000000 0.0000000000 0.0000000000 1.0000000000 0.0000000000 0.0000000000 1.0000000000 0.0000000000 0.0000000000 1.0000000000 0.0000000000 0.0000000000 1.0000000000 0.0000000000 0.0000000000 1.0000000000 0.0000000000 0.0000000000 1.0000000000 0.0000000000 0.0000000000 1.0000000000 0.0000000000 0.0000000000 1.0000000000 0.0000000000 0.0000000000 1.0000000000 0.0000000000 0.0000000000 1.0000000000 0.0000000000 0.0000000000 1.0000000000 0.0000000000 0.0000000000 1.0000000000 0.0000000000 0.0000000000 1.0000000000 0.0000000000 0.0000000000 1.0000000000 0.0000000000 0.0000000000 1.0000000000 0.0000000000 0.0000000000 1.0000000000 0.0000000000 0.0000000000 1.0000000000 0.0000000000 0.0000000000 1.0000000000 0.0000000000 0.0000000000 1.0000000000 0.0000000000 0.0000000000 1.0000000000 0.0000000000 0.0000000000 1.0000000000 0.0000000000 0.0000000000 1.0000000000
        </DataArray>
        <DataArray type="Float32" Name="contact force" NumberOfComponents="3" format="ascii">
 -0.0011452746 -0.0001168709 50.8821178384 -0.0192177359 -0.0027837618 701.4246964162 -0.0313081430 -0.0073435145 1130.7267024412 -0.0396846032 -0.0139608701 1578.2089412027 -0.0462116249 -0.0236328834 2123.5594344985 -0.0199466350 -0.0029495082 720.1154018889 -0.0528971219 -0.0397397662 2950.0120029131 -0.0575579530 -0.0471098966 3405.5821809030 -0.0603836150 -0.0508999808 3683.6420733588 -0.0649505933 -0.0571978839 4182.5489966239 -0.0290411067 -0.0061592878 1036.4731033454 -0.0688609416 -0.0649945258 4874.8046296302 -0.0706705806 -0.0694485594 5285.2262312954 -0.0528865949 -0.0397232735 2944.7469972423 -0.0717058309 -0.0748826857 5920.2730630459 -0.0655480342 -0.0582264141 4264.3042618586 -0.0714159686 -0.0769163405 6451.5611333673 -0.0710864315 -0.0776597507 6840.0537684587 -0.0698907556 -0.0783547279 7349.5884229191 -0.0711183039 -0.0776167975 6803.8987034523 -0.0684880916 -0.0641818278 4794.0767423086 -0.0670640707 -0.0791476895 8088.0132198079 -0.0481721439 -0.0282632460 2354.1654559744 -0.0663187249 -0.0792163905 8285.1146810149 -0.0651605899 -0.0793869441 8581.2092089817 -0.0411469779 -0.0156765818 1685.9198520468 -0.0633626225 -0.0797402258 9038.7843078305 -0.0707782613 -0.0699083235 5328.2039221561 -0.0714450821 -0.0767317377 6373.2414937526 -0.0618818118 -0.0804481801 9483.0711413194 -0.0043546261 -0.0004977239 182.2471482696 -0.0626903488 -0.0799821223 9226.4355257557 -0.0688788811 -0.0787093918 7611.2339849408 -0.0603413280 -0.0508959148 3685.6177391858 -0.0603884452 -0.0813694122 9966.5540286997 -0.0591982790 -0.0494013380 3569.2307128656 -0.0685613323 -0.0787549488 7684.2331269091 -0.0628627985 -0.0799353427 9180.4781987309 -0.0079880870 -0.0009558046 323.0295406727 -0.0608258015 -0.0810600969 9814.5372466877 -0.0715007324 -0.0765164902 6282.4260616911 -0.0710280304 -0.0708565426 5427.3873407605 -0.8893509026 0.1532270117 10020.0025209764 -0.0392631685 -0.0135628362 1552.7867620418 -0.0645250644 -0.0794402200 8722.1522380679 -0.0662099546 -0.0792656928 8295.1419741799 -0.0491077332 -0.0307966841 2478.5024322855 -0.0606024508 -0.0811953374 9882.3615291999 -0.0679263381 -0.0630866589 4685.9346001703 -0.0709050116 -0.0777361532 6904.6947678793 -0.0616406615 -0.0805544158 9540.5896859827 -0.0623321603 -0.0801284791 9321.5729808646 -0.0704230128 -0.0781470525 7134.3753384876 -0.0662329839 -0.0595635783 4380.5023253354 -0.0639713783 -0.0795688260 8851.3955824861 -0.0518160130 -0.0376404296 2827.7921429159 -0.0669574791 -0.0791202983 8087.0766094585 -0.0663371681 -0.0792443512 8252.4875067171 -0.0322412411 -0.0078977195 1174.5518705338 -0.0679254178 -0.0789366792 7832.3562395523 -0.0714851600 -0.0733914986 5700.5920798244 -0.0715800177 -0.0754092752 6013.8456127255 -0.0705797482 -0.0780218845 7057.0269842876 -0.0196791315 -0.0029041811 714.8769887066 -0.0712396684 -0.0770662545 6514.0255598469 -0.0715179254 -0.0760991240 6157.7322867430 -0.0555513760 -0.0443772477 3229.2697320842 -0.0712598106 -0.0721460647 5557.1206701145 -0.0627207248 -0.0541767337 3931.6793417540 -0.0687891995 -0.0651024931 4885.3638294309 -0.0667664830 -0.0607088186 4473.9343366936 -0.0608963784 -0.0517418071 3745.9262834584 -0.0558555061 -0.0448782558 3255.0146684586 -0.0525383264 -0.0392028453 2914.3280942513 -0.0490711667 -0.0308165405 2475.3103675299 -0.0366931929 -0.0111511447 1393.8229360766 -0.0400027894 -0.0143844357 1609.8317136190 -0.0296359806 -0.0064663743 1064.5914014994 -0.0120649711 -0.0015198473 468.2285007907 -0.0034638949 -0.0003878919 149.1655719630
        </DataArray>
        <DataArray type="Float32" Name="contact torque" NumberOfComponents="3" format="ascii">
 0.0000000000 0.0000000000 0.0000000000 0.0000000000 0.0000000000 0.0000000000 0.0000000000 0.0000000000 0.0000000000 0.0000000000 0.0000000000 0.0000000000 0.0000000000 0.0000000000 0.0000000000 0.0000000000 0.0000000000 0.0000000000 0.0000000000 0.0000000000 0.0000000000 0.0000000000 0.0000000000 0.0000000000 0.0000000000 0.0000000000 0.0000000000 0.0000000000 0.0000000000 0.0000000000 0.0000000000 0.0000000000 0.0000000000 0.0000000000 0.0000000000 0.0000000000 0.0000000000 0.0000000000 0.0000000000 0.0000000000 0.0000000000 0.0000000000 0.0000000000 0.0000000000 0.0000000000 0.0000000000 0.0000000000 0.0000000000 0.0000000000 0.0000000000 0.0000000000 0.0000000000 0.0000000000 0.0000000000 0.0000000000 0.0000000000 0.0000000000 0.0000000000 0.0000000000 0.0000000000 0.0000000000 0.0000000000 0.0000000000 0.0000000000 0.0000000000 0.0000000000 0.0000000000 0.0000000000 0.0000000000 0.0000000000 0.0000000000 0.0000000000 0.0000000000 0.0000000000 0.0000000000 0.0000000000 0.0000000000 0.0000000000 0.0000000000 0.0000000000 0.0000000000 0.0000000000 0.0000000000 0.0000000000 0.0000000000 0.0000000000 0.0000000000 0.0000000000 0.0000000000 0.0000000000 0.0000000000 0.0000000000 0.0000000000 0.0000000000 0.0000000000 0.0000000000 0.0000000000 0.0000000000 0.0000000000 0.0000000000 0.0000000000 0.0000000000 0.0000000000 0.0000000000 0.0000000000 0.0000000000 0.0000000000 0.0000000000 0.0000000000 0.0000000000 0.0000000000 0.0000000000 0.0000000000 0.0000000000 0.0000000000 0.0000000000 0.0000000000 0.0000000000 0.0000000000 0.0000000000 0.0000000000 0.0000000000 0.0000000000 0.0000000000 0.0000000000 0.0000000000 0.0000000000 0.0000000000 0.0000000000 0.0000000000 0.0000000000 0.0000000000 0.0000000000 0.0000000000 0.0000000000 0.0000000000 0.0000000000 0.0000000000 0.0000000000 0.0000000000 0.0000000000 0.0000000000 0.0000000000 0.0000000000 0.0000000000 0.0000000000 0.0000000000 0.0000000000 0.0000000000 0.0000000000 0.0000000000 0.0000000000 0.0000000000 0.0000000000 0.0000000000 0.0000000000 0.0000000000 0.0000000000 0.0000000000 0.0000000000 0.0000000000 0.0000000000 0.0000000000 0.0000000000 0.0000000000 0.0000000000 0.0000000000 0.0000000000 0.0000000000 0.0000000000 0.0000000000 0.0000000000 0.0000000000 0.0000000000 0.0000000000 0.0000000000 0.0000000000 0.0000000000 0.0000000000 0.0000000000 0.0000000000 0.0000000000 0.0000000000 0.0000000000 0.0000000000 0.0000000000 0.0000000000 0.0000000000 0.0000000000 0.0000000000 0.0000000000 0.0000000000 0.0000000000 0.0000000000 0.0000000000 0.0000000000 0.0000000000 0.0000000000 0.0000000000 0.0000000000 0.0000000000 0.0000000000 0.0000000000 0.0000000000 0.0000000000 0.0000000000 0.0000000000 0.0000000000 0.0000000000 0.0000000000 0.0000000000 0.0000000000 0.0000000000 0.0000000000 0.0000000000 0.0000000000 0.0000000000 0.0000000000 0.0000000000 0.0000000000 0.0000000000 0.0000000000 0.0000000000 0.0000000000 0.0000000000 0.0000000000 0.0000000000 0.0000000000 0.0000000000 0.0000000000 0.0000000000 0.0000000000 0.0000000000 0.0000000000 0.0000000000 0.0000000000 0.0000000000 0.0000000000 0.0000000000 0.0000000000
        </DataArray>
        <DataArray type="Float32" Name="sliding spring" NumberOfComponents="3" format="ascii">
 0.0000000064 0.0000000006 0.0000000000 0.0000001068 0.0000000155 0.0000000000 0.0000001739 0.0000000408 0.0000000000 0.0000002205 0.0000000776 0.0000000000 0.0000002567 0.0000001313 0.0000000000 0.0000001108 0.0000000164 0.0000000000 0.0000002939 0.0000002208 0.0000000000 0.0000003198 0.0000002617 0.0000000000 0.0000003355 0.0000002828 0.0000000000 0.0000003608 0.0000003178 0.0000000000 0.0000001613 0.0000000342 0.0000000000 0.0000003826 0.0000003611 0.0000000000 0.0000003926 0.0000003858 0.0000000000 0.0000002938 0.0000002207 0.0000000000 0.0000003984 0.0000004160 0.0000000000 0.0000003642 0.0000003235 0.0000000000 0.0000003968 0.0000004273 0.0000000000 0.0000003949 0.0000004314 0.0000000000 0.0000003883 0.0000004353 0.0000000000 0.0000003951 0.0000004312 0.0000000000 0.0000003805 0.0000003566 0.0000000000 0.0000003726 0.0000004397 0.0000000000 0.0000002676 0.0000001570 0.0000000000 0.0000003684 0.0000004401 0.0000000000 0.0000003620 0.0000004410 0.0000000000 0.0000002286 0.0000000871 0.0000000000 0.0000003520 0.0000004430 0.0000000000 0.0000003932 0.0000003884 0.0000000000 0.0000003969 0.0000004263 0.0000000000 0.0000003438 0.0000004469 0.0000000000 0.0000000242 0.0000000028 0.0000000000 0.0000003483 0.0000004443 0.0000000000 0.0000003827 0.0000004373 0.0000000000 0.0000003352 0.0000002828 0.0000000000 0.0000003355 0.0000004521 0.0000000000 0.0000003289 0.0000002745 0.0000000000 0.0000003809 0.0000004375 0.0000000000 0.0000003492 0.0000004441 0.0000000000 0.0000000444 0.0000000053 0.0000000000 0.0000003379 0.0000004503 0.0000000000 0.0000003972 0.0000004251 0.0000000000 0.0000003946 0.0000003936 0.0000000000 0.0000049408 -0.0000008513 0.0000000000 0.0000002181 0.0000000753 0.0000000000 0.0000003585 0.0000004413 0.0000000000 0.0000003678 0.0000004404 0.0000000000 0.0000002728 0.0000001711 0.0000000000 0.0000003367 0.0000004511 0.0000000000 0.0000003774 0.0000003505 0.0000000000 0.0000003939 0.0000004319 0.0000000000 0.0000003424 0.0000004475 0.0000000000 0.0000003463 0.0000004452 0.0000000000 0.0000003912 0.0000004342 0.0000000000 0.0000003680 0.0000003309 0.0000000000 0.0000003554 0.0000004420 0.0000000000 0.0000002879 0.0000002091 0.0000000000 0.0000003720 0.0000004396 0.0000000000 0.0000003685 0.0000004402 0.0000000000 0.0000001791 0.0000000439 0.0000000000 0.0000003774 0.0000004385 0.0000000000 0.0000003971 0.0000004077 0.0000000000 0.0000003977 0.0000004189 0.0000000000 0.0000003921 0.0000004335 0.0000000000 0.0000001093 0.0000000161 0.0000000000 0.0000003958 0.0000004281 0.0000000000 0.0000003973 0.0000004228 0.0000000000 0.0000003086 0.0000002465 0.0000000000 0.0000003959 0.0000004008 0.0000000000 0.0000003484 0.0000003010 0.0000000000 0.0000003822 0.0000003617 0.0000000000 0.0000003709 0.0000003373 0.0000000000 0.0000003383 0.0000002875 0.0000000000 0.0000003103 0.0000002493 0.0000000000 0.0000002919 0.0000002178 0.0000000000 0.0000002726 0.0000001712 0.0000000000 0.0000002039 0.0000000620 0.0000000000 0.0000002222 0.0000000799 0.0000000000 0.0000001646 0.0000000359 0.0000000000 0.0000000670 0.0000000084 0.0000000000 0.0000000192 0.0000000022 0.0000000000
        </DataArray>
      </PointData>
    </Piece>
  </UnstructuredGrid>
</VTKFile>
