<?xml version="1.0"?>
<VTKFile type="UnstructuredGrid" version="0.1" byte_order="LittleEndian">
  <UnstructuredGrid>
    <FieldData>
      <DataArray type="Float32" Name="TIME"  NumberOfTuples="1" format="ascii"> 0.2000000000 </DataArray>
      <DataArray type="Int32"   Name="STEP"  NumberOfTuples="1" format="ascii"> 20000 </DataArray>
    </FieldData>
    <Piece NumberOfPoints="2004" NumberOfCells="2004">
      <Points>
        <DataArray type="Float32" NumberOfComponents="3" format="ascii">
 0.0316345647 0.9999999212 -0.1946951802 -0.0403930749 0.9990052544 -0.1576928739 0.0061718570 0.9964053763 -0.2650140472 0.0508756474 0.9967980154 -0.1283358651 -0.0937160016 0.9998006327 -0.2112733952 0.0886558600 0.9976895186 -0.2510899965 -0.0294848973 0.9912294642 -0.0850175437 -0.0562822865 0.9914406915 -0.3030659837 0.1230783230 0.9985320078 -0.1497461656 -0.1280684028 0.9979689401 -0.1418321356 0.0611390771 0.9875350637 -0.3253432822 0.0450910689 0.9848837914 -0.0509333088 -0.1374617645 0.9953841730 -0.2743590769 0.1619813716 0.9990794646 -0.2303050805 -0.0976268312 0.9859038061 -0.0558343384 -0.0223904886 0.9780902177 -0.3674935027 0.1392378901 0.9899531233 -0.0773434754 -0.1894100591 0.9999553013 -0.1868645284 0.1364113821 0.9865364577 -0.3304407301 -0.0090017675 0.9721151069 -0.0000648692 -0.1294453131 0.9823820582 -0.3498172318 0.2087761648 0.9994267004 -0.1666029670 -0.1752137349 0.9891532953 -0.0727888918 0.0468901256 0.9679601681 -0.4031184736 0.1091329313 0.9733151287 -0.0042400318 -0.2185899371 0.9964646555 -0.2644338632 0.2117651906 0.9930287447 -0.2925340981 -0.0893485481 0.9663516775 0.0187922321 -0.0795891856 0.9638076779 -0.4159802815 0.2178047353 0.9904420971 -0.0802209029 -0.2437187937 0.9969982332 -0.1304544411 0.1345652229 0.9676927106 -0.4039715289 0.0422774106 0.9550604787 0.0513182546 -0.2060420267 0.9813466091 -0.3542691866 0.2686887672 0.9996338132 -0.2169532985 -0.1807128352 0.9719076918 0.0006458014 0.0012876813 0.9482808825 -0.4581718161 0.1836499621 0.9697943526 0.0077553230 -0.2844392643 0.9994748935 -0.2210598886 0.2258105661 0.9784516164 -0.3660746438 -0.0496323855 0.9444363068 0.0781126808 -0.1515946108 0.9569552327 -0.4355997532 0.2891856027 0.9953984727 -0.1154388444 -0.2676130316 0.9862065981 -0.0573641944 0.1013358546 0.9442238236 -0.4680246005 0.1112292909 0.9442561946 0.0785433262 -0.2819055679 0.9869393908 -0.3282990762 0.3035598714 0.9935377179 -0.2882832474 -0.1549674823 0.9478935159 0.0697227703 -0.0640472179 0.9332019625 -0.4929659865 0.2625114738 0.9744257585 -0.0082161906 -0.3308600188 0.9983293008 -0.1534641572 0.2089555175 0.9552624559 -0.4401809656 0.0114913368 0.9250848716 0.1204979420 -0.2318187272 0.9589975914 -0.4299366232 0.3468970283 0.9986635907 -0.1769551915 -0.2614236138 0.9655340399 0.0213012369 0.0451277135 0.9209547567 -0.5181283031 0.1912904399 0.9423148987 0.0831224194 -0.3499217000 0.9938443493 -0.2752150908 0.3099929725 0.9771798483 -0.3703216044 -0.1046127885 0.9214421173 0.1277637133 -0.1426761781 0.9262651398 -0.5075084965 0.3391619614 0.9839190191 -0.0508021014 -0.3513605619 0.9869155481 -0.0702545930 0.1657670617 0.9268105320 -0.5063907554 0.0876913666 0.9125719803 0.1446978317 -0.3146497814 0.9688936728 -0.3991935343 0.3809191339 0.9889733527 -0.2582449440 -0.2272159976 0.9367698726 0.0957480194 -0.0278291529 0.9027128988 -0.5518054125 0.2776004291 0.9498977240 0.0646400480 -0.3957640888 0.9819846878 -0.1985607545 0.2871623683 0.9504162566 -0.4526480700 -0.0356914325 0.8977295924 0.1709502220 -0.2301701337 0.9293862646 -0.5010627482 0.3976100889 0.9738204419 -0.1203525705 -0.3426998770 0.9647385986 0.0186295863 0.1018544232 0.8983246827 -0.5593478824 0.1746500541 0.9098123716 0.1497646964 -0.3876072006 0.9687470928 -0.3405549544 0.3863842998 0.9671165573 -0.3497909578 -0.1696916544 0.9047157548 0.1588881162 -0.1130481795 0.8932532551 -0.5678338359 0.3630331312 0.9602796043 0.0204523672 -0.4087867565 0.9440784416 -0.1090017306 0.2380507480 0.9166875251 -0.5263669877 0.0469426069 0.8812616436 0.1975788522 -0.3222886970 0.9418727272 -0.4717492076 0.4159389617 0.9163069858 -0.2078293370 -0.3052236810 0.9330690467 0.1031663899 0.0225159180 0.8749921919 -0.5965367349 0.2690736529 0.9180903668 0.1342210651 -0.4158817914 0.9021970096 -0.2547933528 0.3660620447 0.9452256549 -0.4441226772 -0.0944887903 0.8751078589 0.2069558600 -0.2074545994 0.8949210892 -0.5650708105 0.4103076263 0.9053459594 -0.0593683852 -0.4025035667 0.9194914523 -0.0134781196 0.1682474880 0.8819330696 -0.5859425759 0.1399773140 0.8752510278 0.2067430655 -0.3962546375 0.9210314511 -0.4079209365 0.4150095986 0.8712273662 -0.2997685484 -0.2429063881 0.8952565632 0.1750897305 -0.0683451222 0.8608581662 -0.6170452308 0.3637464216 0.9275825305 0.0927358575 -0.4191132157 0.8361284184 -0.1640924548 0.3168027602 0.9135160992 -0.5305118725 -0.0063465498 0.8528749682 0.2386520558 -0.3083265235 0.9079826796 -0.5413242391 0.4190259186 0.8199799857 -0.1517310226 -0.3788888726 0.9142545278 0.0870778545 0.0834297293 0.8520588531 -0.6291627025 0.2412606913 0.8815456391 0.1971278010 -0.4152006199 0.8227006072 -0.3128578043 0.4053328725 0.8594772485 -0.3977310559 -0.1624283891 0.8587124733 0.2306348884 -0.1683815239 0.8586197917 -0.6201735745 0.4066537016 0.8440478769 0.0029096926 -0.4149885683 0.8042241364 -0.0711769555 0.2427568945 0.8727943306 -0.5997971112 0.0917091432 0.8415365999 0.2536633927 -0.3890634780 0.8793581676 -0.4768260860 0.4191832838 0.7682237274 -0.2427876524 -0.3227172603 0.8918885529 0.1770280049 -0.0123059253 0.8315458041 -0.6557321228 0.3462251512 0.8939432994 0.1635647201 -0.4197315802 0.7508889228 -0.2202712419 0.3825151749 0.8747894034 -0.5045142728 -0.0693250196 0.8293421388 0.2690508965 -0.2761652201 0.8696044482 -0.6042805022 0.4168475968 0.7511690333 -0.0944862957 -0.4038959695 0.8051438434 0.0289517119 0.1529600375 0.8353490824 -0.6509694165 0.1982028818 0.8433343683 0.2513308278 -0.4099774167 0.7691975318 -0.3733754869 0.4137226195 0.7489009305 -0.3366986214 -0.2383385110 0.8495583665 0.2430970803 -0.1168105182 0.8233828159 -0.6657181400 0.3974285589 0.8057504271 0.0691507891 -0.4186590749 0.7125988677 -0.1290447164 0.3236976677 0.8686940403 -0.6002548517 0.0330725101 0.8110683264 0.2908063576 -0.3724820338 0.8536843729 -0.5495405895 0.4199652524 0.6939875978 -0.1864989913 -0.3808240608 0.8348110043 0.1407335052 0.0526582512 0.8071632549 -0.6846754513 0.3117747350 0.8576836150 0.2288313001 -0.4179118024 0.6917035806 -0.2770656549 0.4011869302 0.7595615526 -0.4390325921 -0.1404075835 0.8120368084 0.2896882377 -0.2294195602 0.8294301230 -0.6583401599 0.4121235548 0.7056923040 -0.0350064046 -0.4120236863 0.7032039458 -0.0339615170 0.2302459033 0.8258652607 -0.6626974610 0.1434962464 0.8063891708 0.2961474304 -0.4014474618 0.7371217019 -0.4379357485 0.4178704308 0.6664081041 -0.2780500650 -0.3204732439 0.8446234844 0.2427372444 -0.0556831341 0.7915598297 -0.7019101264 0.3830906994 0.7871538350 0.1411784006 -0.4199711507 0.6464091864 -0.1855394567 0.3765592362 0.7988469742 -0.5550701706 -0.0338030397 0.7856160468 0.3188288761 -0.3435508874 0.8349944717 -0.6231176475 0.4187190123 0.6416701321 -0.1300159009 -0.3978580273 0.7215039445 0.0707465340 0.1252243528 0.7890168839 -0.7046307300 0.2620085802 0.8167628760 0.2839681273 -0.4138888962 0.6519257559 -0.3357004843 0.4100173849 0.6649487637 -0.3745099286 -0.2189806666 0.8019353412 0.3011371824 -0.1716697284 0.7906166183 -0.7029235698 0.4045637273 0.6781018016 0.0281139696 -0.4168635085 0.6274248903 -0.0934758170 0.3136970524 0.8203850112 -0.6622461628 0.0799386320 0.7730325417 0.3318210767 -0.3887684475 0.7221481452 -0.5081124046 0.4197844039 0.6059915602 -0.2212388283 -0.3708511882 0.7677851083 0.1908040270 0.0130495505 0.7648496544 -0.7293968196 0.3613510217 0.7832273092 0.2196117119 -0.4193211864 0.5989530034 -0.2418348852 0.3940321572 0.6894935648 -0.4818072225 -0.1077819366 0.7664150734 0.3384421262 -0.2954822740 0.8039705886 -0.6852376169 0.4153901920 0.6058339913 -0.0720919490 -0.4077128948 0.6324883202 0.0045747951 0.2049722299 0.7780432336 -0.7161130329 0.2012773541 0.7760312699 0.3287719218 -0.4072605359 0.6273079683 -0.3975364424 0.4156378993 0.5940825673 -0.3140119630 -0.3038576084 0.7963032500 0.3013232219 -0.1056973614 0.7555685541 -0.7384123826 0.3932987102 0.6650995731 0.0963984708 -0.4194101994 0.5711981743 -0.1507257715 0.3640634472 0.7412604760 -0.6058748835 0.0093752064 0.7448991188 0.3590532566 -0.3702331104 0.7213961306 -0.5853586940 0.4197307871 0.5620143755 -0.1650142359 -0.3897079199 0.6623028112 0.1146965918 0.0883842949 0.7444138563 -0.7489092393 0.3252095053 0.7802688290 0.2979257172 -0.4166584183 0.5658638719 -0.2991768583 0.4050915781 0.6046590161 -0.4138745805 -0.1885928068 0.7543491117 0.3501663111 -0.2322950548 0.7626507306 -0.7314980941 0.4096277136 0.5831532462 -0.0113986415 -0.4141840399 0.5652403417 -0.0570435454 0.2912689716 0.7724462807 -0.7175065046 0.1328623527 0.7391454091 0.3643404602 -0.3972624260 0.6153446622 -0.4640584068 0.4188456104 0.5409222098 -0.2562028201 -0.3562705288 0.7185604383 0.2428447329 -0.0332978873 0.7258696300 -0.7656048785 0.3768824563 0.6647018931 0.1714168472 -0.4199538118 0.5297380459 -0.2069998946 0.3848445390 0.6390439395 -0.5270603392 -0.0672811163 0.7230749091 0.3786342636 -0.3425842237 0.7312055391 -0.6697179715 0.4177085342 0.5308446446 -0.1081316974 -0.4021264206 0.5805751636 0.0448595838 0.1701620419 0.7310722622 -0.7610109593 0.2645478112 0.7498972000 0.3533241772 -0.4117013921 0.5444261943 -0.3588665780 0.4124868108 0.5400755641 -0.3509988081 -0.2761475578 0.7486217878 0.3530445804 -0.1613766075 0.7238237625 -0.7673926222 0.4007775767 0.5716393121 0.0535092450 -0.4180860034 0.5143355084 -0.1155400350 0.3474305943 0.6990599272 -0.6593511330 0.0585879251 0.7077525832 0.3916587113 -0.3826451623 0.6145600804 -0.5368453232 0.4199921285 0.5012849184 -0.1997622459 -0.3793851801 0.6189924783 0.1613510227 0.0446732741 0.7025294392 -0.7853768140 0.3529849008 0.67
[...]
      <PointData Scalars="material ID">
        <DataArray type="Int32" Name="material ID" format="ascii">
 0 0 0 0 0 0 0 0 0 0 0 0 0 0 0 0 0 0 0 0 0 0 0 0 0 0 0 0 0 0 0 0 0 0 0 0 0 0 0 0 0 0 0 0 0 0 0 0 0 0 0 0 0 0 0 0 0 0 0 0 0 0 0 0 0 0 0 0 0 0 0 0 0 0 0 0 0 0 0 0 0 0 0 0 0 0 0 0 0 0 0 0 0 0 0 0 0 0 0 0 0 0 0 0 0 0 0 0 0 0 0 0 0 0 0 0 0 0 0 0 0 0 0 0 0 0 0 0 0 0 0 0 0 0 0 0 0 0 0 0 0 0 0 0 0 0 0 0 0 0 0 0 0 0 0 0 0 0 0 0 0 0 0 0 0 0 0 0 0 0 0 0 0 0 0 0 0 0 0 0 0 0 0 0 0 0 0 0 0 0 0 0 0 0 0 0 0 0 0 0 0 0 0 0 0 0 0 0 0 0 0 0 0 0 0 0 0 0 0 0 0 0 0 0 0 0 0 0 0 0 0 0 0 0 0 0 0 0 0 0 0 0 0 0 0 0 0 0 0 0 0 0 0 0 0 0 0 0 0 0 0 0 0 0 0 0 0 0 0 0 0 0 0 0 0 0 0 0 0 0 0 0 0 0 0 0 0 0 0 0 0 0 0 0 0 0 0 0 0 0 0 0 0 0 0 0 0 0 0 0 0 0 0 0 0 0 0 0 0 0 0 0 0 0 0 0 0 0 0 0 0 0 0 0 0 0 0 0 0 0 0 0 0 0 0 0 0 0 0 0 0 0 0 0 0 0 0 0 0 0 0 0 0 0 0 0 0 0 0 0 0 0 0 0 0 0 0 0 0 0 0 0 0 0 0 0 0 0 0 0 0 0 0 0 0 0 0 0 0 0 0 0 0 0 0 0 0 0 0 0 0 0 0 0 0 0 0 0 0 0 0 0 0 0 0 0 0 0 0 0 0 0 0 0 0 0 0 0 0 0 0 0 0 0 0 0 0 0 0 0 0 0 0 0 0 0 0 0 0 0 0 0 0 0 0 0 0 0 0 0 0 0 0 0 0 0 0 0 0 0 0 0 0 0 0 0 0 0 0 0 0 0 0 0 0 0 0 0 0 0 0 0 0 0 0 0 0 0 0 0 0 0 0 0 0 0 0 0 0 0 0 0 0 0 0 0 0 0 0 0 0 0 0 0 0 0 0 0 0 0 0 0 0 0 0 0 0 0 0 0 0 0 0 0 0 0 0 0 0 0 0 0 0 0 0 0 0 0 0 0 0 0 0 0 0 0 0 0 0 0 0 0 0 0 0 0 0 0 0 0 0 0 0 0 0 0 0 0 0 0 0 0 0 0 0 0 0 0 0 0 0 0 0 0 0 0 0 0 0 0 0 0 0 0 0 0 0 0 0 0 0 0 0 0 0 0 0 0 0 0 0 0 0 0 0 0 0 0 0 0 0 0 0 0 0 0 0 0 0 0 0 0 0 0 0 0 0 0 0 0 0 0 0 0 0 0 0 0 0 0 0 0 0 0 0 0 0 0 0 0 0 0 0 0 0 0 0 0 0 0 0 0 0 0 0 0 0 0 0 0 0 0 0 0 0 0 0 0 0 0 0 0 0 0 0 0 0 0 0 0 0 0 0 0 0 0 0 0 0 0 0 0 0 0 0 0 0 0 0 0 0 0 0 0 0 0 0 0 0 0 0 0 0 0 0 0 0 0 0 0 0 0 0 0 0 0 0 0 0 0 0 0 0 0 0 0 0 0 0 0 0 0 0 0 0 0 0 0 0 0 0 0 0 0 0 0 0 0 0 0 0 0 0 0 0 0 0 0 0 0 0 0 0 0 0 0 0 0 0 0 0 0 0 0 0 0 0 0 0 0 0 0 0 0 0 0 0 0 0 0 0 0 0 0 0 0 0 0 0 0 0 0 0 0 0 0 0 0 0 0 0 0 0 0 0 0 0 0 0 0 0 0 0 0 0 0 0 0 0 0 0 0 0 0 0 0 0 0 0 0 0 0 0 0 0 0 0 0 0 0 0 0 0 0 0 0 0 0 0 0 0 0 0 0 0 0 0 0 0 0 0 0 0 0 0 0 0 0 0 0 0 0 0 0 0 0 0 0 0 0 0 0 0 0 0 0 0 0 0 0 0 0 0 0 0 0 0 0 0 0 0 0 0 0 0 0 0 0 0 0 0 0 0 0 0 0 0 0 0 0 0 0 0 0 0 0 0 0 0 0 0 0 0 0 0 0 0 0 0 0 0 0 0 0 0 0 0 0 0 0 0 0 0 0 0 0 0 0 0 0 0 0 0 0 0 0 0 0 0 0 0 0 0 0 0 0 0 0 0 0 0 0 0 0 0 0 0 0 0 0 0 0 0 0 0 0 0 0 0 0 0 0 0 0 0 0 0 0 0 0 0 0 0 0 0 0 0 0 0 0 0 0 0 0 0 0 0 0 0 0 0 0 0 0 0 0 0 0 0 0 0 0 0 0 0 0 0 0 0 0 0 0 0 0 0 0 0 0 0 0 0 0 0 0 0 0 0 0 0 0 0 0 0 0 0 0 0 0 0 0 0 0 0 0 0 0 0 0 0 0 0 0 0 0 0 0 0 0 0 0 0 0 0 0 0 0 0 0 0 0 0 0 0 0 0 0 0 0 0 0 0 0 0 0 0 0 0 0 0 0 0 0 0 0 0 0 0 0 0 0 0 0 0 0 0 0 0 0 0 0 0 0 0 0 0 0 0 0 0 0 0 0 0 0 0 0 0 0 0 0 0 0 0 0 0 0 0 0 0 0 0 0 0 0 0 0 0 0 0 0 0 0 0 0 0 0 0 0 0 0 0 0 0 0 0 0 0 0 0 0 0 0 0 0 0 0 0 0 0 0 0 0 0 0 0 0 0 0 0 0 0 0 0 0 0 0 0 0 0 0 0 0 0 0 0 0 0 0 0 0 0 0 0 0 0 0 0 0 0 0 0 0 0 0 0 0 0 0 0 0 0 0 0 0 0 0 0 0 0 0 0 0 0 0 0 0 0 0 0 0 0 0 0 0 0 0 0 0 0 0 0 0 0 0 0 0 0 0 0 0 0 0 0 0 0 0 0 0 0 0 0 0 0 0 0 0 0 0 0 0 0 0 0 0 0 0 0 0 0 0 0 0 0 0 0 0 0 0 0 0 0 0 0 0 0 0 0 0 0 0 0 0 0 0 0 0 0 0 0 0 0 0 0 0 0 0 0 0 0 0 0 0 0 0 0 0 0 0 0 0 0 0 0 0 0 0 0 0 0 0 0 0 0 0 0 0 0 0 0 0 0 0 0 0 0 0 0 0 0 0 0 0 0 0 0 0 0 0 0 0 0 0 0 0 0 0 0 0 0 0 0 0 0 0 0 0 0 0 0 0 0 0 0 0 0 0 0 0 0 0 0 0 0 0 0 0 0 0 0 0 0 0 0 0 0 0 0 0 0 0 0 0 0 0 0 0 0 0 0 0 0 0 0 0 0 0 0 0 0 0 0 0 0 0 0 0 0 0 0 0 0 0 0 0 0 0 0 0 0 0 0 0 0 0 0 0 0 0 0 0 0 0 0 0 0 0 0 0 0 0 0 0 0 0 0 0 0 0 0 0 0 0 0 0 0 0 0 0 0 0 0 0 0 0 0 0 0 0 0 0 0 0 0 0 0 0 0 0 0 0 0 0 0 0 0 0 0 0 0 0 0 0 0 0 0 0 0 0 0 0 0 0 0 0 0 0 0 0 0 0 0 0 0 0 0 0 0 0 0 0 0 0 0 0 0 0 0 0 0 0 0 0 0 0 0 0 0 0 0 0 0 0 0 0 0 0 0 0 0 0 0 0 0 0 0 0 0 0 0 0 0 0 0 0 0 0 0 0 0 0 0 0 0 0 0 0 0 0 0 0 0 0 0 0 0 0 0 0 0 0 0 0 0 0 0 0 0 0 0 0 0 0 0 0 0 0 0 0 0 0 0 0 0 0 0 0 0 0 0 0 0 0 0 0 0 0 0 0 0 0 0 0 0 0 0 0 0 0 0 0 0 0 0 0 0 0 0 0 0 0 0 0 0 0 0 0 0 0 0 0 0 0 0 0 0 0 0 0 0 0 0 0 0 0 0 0 0 0 0 0 0 0 0 0 0 0 0 0 0 0 0 0 0 0 0 0 0 0 0 0 0 0 0 0 0 0 0 0 0 0 0 0 0 0 0 0 0 0 0 0 0 0 0 0 0 0 0 0 0 0 0 0 0 0 0 0 0 0 0 0 0 0 0 0 0 0 0 0 0 0 0 0 0 0 0 0 0 0 0 0 0 0 0 0 0 0 0 0 0 0 0 0 0 0 0 0 0 0 0 0 0 0 0 0 0 0 0 0 0 0 0 0 0 0 0 0 0 0 0 0 0 0 0 0 0 0 0 0 0 0 0 0 0 0 0 0 0 0 0 0 0 0 0 0 0 0 0 0 0 0 0 0 0 0
        </DataArray>
        <DataArray type="Float32" Name="velocity" NumberOfComponents="3" format="ascii">
 -0.0000332951 -0.0000389224 -1.5376459706 0.0000523648 0.0000578581 -1.5374766259 -0.0001960828 -0.0002228321 -1.5375776235 0.0001203258 0.0001346320 -1.5376821393 -0.0000716735 -0.0000822724 -1.5373552641 -0.0001638487 -0.0001864209 -1.5377719317 0.0002206069 0.0002479319 -1.5374815415 -0.0002841730 -0.0003223486 -1.5374200582 0.0000707613 0.0000786307 -1.5378538228 0.0000890822 0.0000993462 -1.5372709481 -0.0003357449 -0.0003806205 -1.5376816727 0.0002995111 0.0003370704 -1.5376375876 -0.0002177165 -0.0002472632 -1.5372424423 -0.0001157317 -0.0001320652 -1.5379453147 0.0002881654 0.0003242621 -1.5373098649 -0.0004333229 -0.0004908541 -1.5374636007 0.0002383722 0.0002679911 -1.5378687948 -0.0000151672 -0.0000184270 -1.5371341379 -0.0003475455 -0.0003939575 -1.5378533156 0.0004172702 0.0004701151 -1.5374789682 -0.0003924022 -0.0004446164 -1.5372269947 0.0000317381 0.0000345377 -1.5380545524 0.0002489160 0.0002799246 -1.5371387507 -0.0005157950 -0.0005840322 -1.5375974905 0.0004076048 0.0004591873 -1.5377555873 -0.0001947397 -0.0002212993 -1.5370574573 -0.0002597916 -0.0002948219 -1.5380447388 0.0004609238 0.0005194393 -1.5372778926 -0.0005455703 -0.0006176622 -1.5372938318 0.0002317110 0.0002604601 -1.5380519551 0.0001154214 0.0001291112 -1.5370006798 -0.0005177699 -0.0005862692 -1.5377997580 0.0005362204 0.0006044986 -1.5375530744 -0.0004027085 -0.0004562548 -1.5370469660 -0.0000848224 -0.0000971523 -1.5381937911 0.0004189153 0.0004719855 -1.5370809163 -0.0006432443 -0.0007280152 -1.5374404523 0.0004353737 0.0004905548 -1.5379188852 -0.0000943291 -0.0001078548 -1.5369128898 -0.0004300382 -0.0004871602 -1.5380391287 0.0005982485 0.0006745828 -1.5373125178 -0.0005909896 -0.0006689699 -1.5371092182 0.0001501822 0.0001683465 -1.5382301640 0.0002846238 0.0003202725 -1.5369171405 -0.0006660537 -0.0007537909 -1.5376614520 0.0005992454 0.0006756982 -1.5376844398 -0.0003425876 -0.0003883276 -1.5368859700 -0.0002499509 -0.0002837105 -1.5382585737 0.0005788262 0.0006526471 -1.5370777101 -0.0007237935 -0.0008190111 -1.5372497654 0.0003984001 0.0004487776 -1.5381135618 0.0000621542 0.0000689377 -1.5368024300 -0.0006015952 -0.0006809762 -1.5379394607 0.0006963686 0.0007854328 -1.5374034070 -0.0005778794 -0.0006541531 -1.5369288417 0.0000077727 0.0000074531 -1.5383723049 0.0004667320 0.0005260131 -1.5368774021 -0.0007820448 -0.0008848279 -1.5374704729 0.0006098458 0.0006876688 -1.5378647033 -0.0002196983 -0.0002494875 -1.5367465725 -0.0004398700 -0.0004982735 -1.5382306840 0.0007131885 0.0008044435 -1.5371250999 -0.0007574597 -0.0008570401 -1.5370495976 0.0002998148 0.0003373935 -1.5383158355 0.0002547827 0.0002865648 -1.5367251201 -0.0007548721 -0.0008541379 -1.5377650669 0.0007523903 0.0008487198 -1.5375470831 -0.0005067088 -0.0005737422 -1.5367629709 -0.0001804129 -0.0002051538 -1.5384257219 0.0006390736 0.0007207183 -1.5368813628 -0.0008600082 -0.0009729018 -1.5372538689 0.0005670599 0.0006393243 -1.5380843421 -0.0000422451 -0.0000490032 -1.5366094302 -0.0006304567 -0.0007135879 -1.5381078341 0.0008131632 0.0009173885 -1.5372226345 -0.0007425377 -0.0008401760 -1.5368552130 0.0001388055 0.0001554877 -1.5384247305 0.0004605471 0.0005190312 -1.5366871680 -0.0008774693 -0.0009926372 -1.5375426082 0.0007641198 0.0008619657 -1.5377411741 -0.0003709611 -0.0004203743 -1.5365936918 -0.0003923425 -0.0004445830 -1.5383812096 0.0007852401 0.0008858505 -1.5369306970 -0.0008971145 -0.0010148166 -1.5370318471 0.0004647665 0.0005237503 -1.5383092706 0.0001650805 0.0001852297 -1.5364801432 -0.0008011176 -0.0009063885 -1.5379059273 0.0008748071 0.0009870272 -1.5373708613 -0.0006746763 -0.0007635033 -1.5366746165 -0.0000637062 -0.0000732996 -1.5383167414 0.0006562468 0.0007401256 -1.5366910967 -0.0009635627 -0.0010898952 -1.5372979167 0.0007281370 0.0008213065 -1.5379814140 -0.0001724284 -0.0001960721 -1.5363541818 -0.0006107209 -0.0006912961 -1.5382769105 0.0008965144 0.0010115614 -1.5370273545 -0.0008907180 -0.0010075837 -1.5368176592 0.0002799786 0.0003149844 -1.5382750375 0.0003862150 0.0004350611 -1.5364303840 -0.0009390368 -0.0010621973 -1.5376534369 0.0008960218 0.0010109889 -1.5375705156 -0.0005269159 -0.0005965622 -1.5364488780 -0.0002765476 -0.0003137567 -1.5381966890 0.0008227460 0.0009282291 -1.5367364661 -0.0010110406 -0.0011435268 -1.5370506083 0.0006320998 0.0007127999 -1.5382254062 0.0000375387 0.0000411466 -1.5361739058 -0.0008107132 -0.0009172344 -1.5380799429 0.0009698892 0.0010944534 -1.5371732552 -0.0008357441 -0.0009454702 -1.5366183030 0.0000661542 0.0000734193 -1.5380719547 0.0006190007 0.0006980528 -1.5364713552 -0.0010390930 -0.0011752291 -1.5373789519 0.0008737630 0.0009858342 -1.5378214484 -0.0003068525 -0.0003479335 -1.5361478444 -0.0005033306 -0.0005699665 -1.5381435563 0.0009513300 0.0010734960 -1.5368271947 -0.0010182828 -0.0011517018 -1.5368131709 0.0004241475 0.0004778663 -1.5381062602 0.0002526349 0.0002841568 -1.5361000121 -0.0009711106 -0.0010984374 -1.5378020240 0.0010046395 0.0011337072 -1.5373705988 -0.0006864335 -0.0007767767 -1.5363565334 -0.0001446445 -0.0001647296 -1.5379369561 0.0008272329 0.0009333039 -1.5365428961 -0.0011006023 -0.0012447120 -1.5371036751 0.0007960656 0.0008980464 -1.5380968648 -0.0000925204 -0.0001057830 -1.5359495396 -0.0007505316 -0.0008492449 -1.5381307809 0.0010402606 0.0011739626 -1.5369659131 -0.0009814898 -0.0011101278 -1.5365923819 0.0001986704 0.0002231369 -1.5378869443 0.0004844318 0.0005460318 -1.5361280968 -0.0010895765 -0.0012322670 -1.5374962112 0.0009992398 0.0011275994 -1.5376218326 -0.0004469539 -0.0005062114 -1.5360200045 -0.0003620487 -0.0004103432 -1.5378737780 0.0009801792 0.0011060947 -1.5366275220 -0.0011237204 -0.0012708222 -1.5368403987 0.0005774923 0.0006511134 -1.5379847412 0.0001186654 0.0001328101 -1.5358518789 -0.0009721705 -0.0010996401 -1.5379786772 0.0010906230 0.0012308547 -1.5371551691 -0.0008547685 -0.0009669548 -1.5363277722 -0.0000143419 -0.0000175127 -1.5377446097 0.0007432076 0.0008383835 -1.5362590993 -0.0011676075 -0.0013204146 -1.5371902966 0.0009471546 0.0010687465 -1.5379222792 -0.0002240029 -0.0002543228 -1.5357989594 -0.0005989501 -0.0006779859 -1.5378726397 0.0010880347 0.0012279422 -1.5367560974 -0.0011066401 -0.0012515182 -1.5365955260 0.0003363627 0.0003787005 -1.5377570687 0.0003387814 0.0003814896 -1.5358426683 -0.0011167274 -0.0012629457 -1.5376503233 0.0011029872 0.0012448161 -1.5373985611 -0.0005964124 -0.0006750624 -1.5359558604 -0.0002262836 -0.0002569545 -1.5376676290 0.0009793458 0.0011051592 -1.5364244743 -0.0012075067 -0.0013654827 -1.5368986783 0.0007442342 0.0008394949 -1.5379029118 -0.0000121238 -0.0000149457 -1.5356757294 -0.0008675732 -0.0009814681 -1.5379183737 0.0011554931 0.0013041491 -1.5369337852 -0.0010250999 -0.0011593897 -1.5363458661 0.0001164123 0.0001302129 -1.5376048940 0.0005811807 0.0006553413 -1.5359233233 -0.0012138050 -0.0013726105 -1.5373108265 0.0010747930 0.0012129544 -1.5377000472 -0.0003597447 -0.0004076762 -1.5357042378 -0.0004495873 -0.0005092344 -1.5376456326 0.0011145382 0.0012578911 -1.5365477823 -0.0012098529 -0.0013681253 -1.5366277037 0.0004824838 0.0005437855 -1.5376674078 0.0002010012 0.0002258366 -1.5356332722 -0.0011156830 -0.0012617711 -1.5378291788 0.0011855691 0.0013381211 -1.5371641852 -0.0007588717 -0.0008586028 -1.5359460505 -0.0000947703 -0.0001083710 -1.5375140469 0.0008591157 0.0009693369 -1.5361068873 -0.0012711399 -0.0014373758 -1.5369879362 0.0009258063 0.0010446303 -1.5378423153 -0.0001424504 -0.0001621804 -1.5355531175 -0.0006979777 -0.0007898579 -1.5376728212 0.0012008963 0.0013554505 -1.5367123067 -0.0011689091 -0.0013218611 -1.5363760048 0.0002505032 0.0002817070 -1.5375034622 0.0004279877 0.0004822769 -1.5356676986 -0.0012403872 -0.0014026466 -1.5374667416 0.0011785105 0.0013301380 -1.5374529259 -0.0005028960 -0.0005694019 -1.5356551972 -0.0003095399 -0.0003510089 -1.5374733011 0.0011149685 0.0012583834 -1.5363365629 -0.0012920115 -0.0014609470 -1.5366887646 0.0006405608 0.0007223771 -1.5376073234 0.0000684643 0.0000761057 -1.5354803217 -0.0009851895 -0.0011143415 -1.5377388348 0.0012486094 0.0014093487 -1.5369272516 -0.0009376961 -0.0010606334 -1.5359869928 0.0000353861 0.0000386784 -1.5373989051 0.0006829206 0.0007702874 -1.5357873566 -0.0013163124 -0.0014884136 -1.5371088877 0.0011071022 0.0012494546 -1.5377509105 -0.0002751988 -0.0003121524 -1.5354727407 -0.0005407201 -0.0006121881 -1.5374765480 0.0012280368 0.0013861194 -1.5364936732 -0.0012760045 -0.0014428547 -1.5364142149 0.0003910060 0.0004404442 -1.5374308031 0.0002853373 0.0003211212 -1.5354768381 -0.0012436134 -0.0014062970 -1.5376518794 0.0012608488 0.0014231684 -1.5371980749 -0.0006568945 -0.0007433837 -1.5356470540 -0.0001757160 -0.0001998155 -1.5373416917 0.0009795861 0.0011054428 -1.5360118996 -0.0013549639 -0.0015320710 -1.5367786943 0.0008142276 0.0009185807 -1.5375682799 -0.0000618125 -0.0000710732 -1.5353706287 -0.0008027417 -0.0009082119 -1.5375196064 0.0012939377 0.0014605660 -1.5366927142 -0.0011329863 -0.0012812679 -1.5360766551 0.0001670664 0.0001874487 -1.5373127026 0.0005212431 0.0005876370 -1.5355448580 -0.0013443286 -0.0015200700 -1.5372633088 0.0012353470 0.0013943475 -1.5375310455 -0.0004133813 -0.0004682647 -1.5354281483 -0.0003951678 -0.0004477438 -1.5373247568 0.0012346996 0.0013936532 -1.5362760056 -0.0013591026 -0.0015367379 -1.5364768426 0.0005412663 0.0006102044 -1.5373802017 0.0001499151 0.0001681301 -1.5353346690 -0.0011089894 -0.0012542017 -1.5375899589 0.0013240881 0.0014946214 -1.5369440258 -0.0008253955 -0.0009337510 -1.5356788408 -0.0000450594 -0.0000522013 -1.5372406788 0.0007909222 0.0008923063 -1.5356979801 -0.0014007373 -0.0015837877 -1.5368981530 0.0010063205 0.0011356013 -1.5375406886 -0.0001927183 -0.0002189637 -1.5352958573 -0.0006363355 -0.0007202070 -1.5373441056 0.0013230157 0.0014934241 -1.5364627030 -0.0013131430 -0.0014848058 -1.5361873421 0.0003032311 0.0003412846 -1.5372489018 0.0003724299 0.0004195186 -1.5353616053 -0.0013543884 -0.0015314408 -1.5374518222 0.0013205973 0.0014906684 -1.5372557782 -0.0005602536 -0.0006341954 -1.5354162964 -0.0002578676 -0.0002926234 -1.5372066626 0.0011067910 0.0012491560 -1.5359601967 -0.0014229536 -0.0016088771 -1.5365664644 0.0007048975 0.0007950701 -1.5373461239 0.0000185870 0.0000197635 -1.5352303687 -0.0009141975 -0.0010341270 -1.5373949505 0.0013705007 0.0015470640 -1.5366951312 -0.0010117813 -0.0011443253 -1.5357524359 0.0000853388 0.0000951201 -1.5371632259 0.0006194212 0.0006985577 -1.5354583719 -0.0014309879 -0.0016179682 -1.5370488458 0.0012127273 0.0013687934 -1.5375025336 -0.0003271750 -0.0003708667 -1.5352510118 -0.0004839414 -0.0005480335 -1.5372059844 0.0013360376 0.0015081424 -1.5362367828 -0.0014121207 -0.0015966295 -1.5362637628 0.0004470502 0.0005037677 -1.5372026886 0.0002329265 0.0002619168 -1.5352233392 -0.0012394185 -0.0014015520 -1.5374576726 0.0013853174 0.0015637949 -1.5369827210 -0.0007193591 -0.0008139478 -1.5354368272 -0.0001256025 -0.0001431923 -1.5371144121 0.0009059859 0.0010223029 -1.5356431106 -0.0014701645 -0.0016622177 -1.5366835036 0.0008854781 0.0009990843 -1.5373226640 -0.0001115897 -0.0001273034 -1.5351568095 -0.0007373112 -0.0008342826 -1.5372352453 0.0014019646 0.0015826180 -1.5364528576 -0.0012172967 -0.0013765128 -1.5358711025 0.0002183744 0.0002454208 -1.5371042908 0.0004630731 0.0005219266 -1.5352759929 -0.0014465008 -0.0016354996 -1.5372336164 0.0013649170 0.0015407369 -1.5373323705 -0.0004682759 -0.0005302770 -1.5352335975 -0.0003419372 -0.0003875991 -1.5370969160 0.0012398862 0.0013995227 -1.5359419921 -0.0014780891 -0.0016711610 -1.5363530815 0.0006019823 0.0006788053 -1.5371700312 0.0000994258 0.0001110955 -1.5351201655 -0.0010330062 -0.0011683497 -1.5372870536 0.0014334322 0.0016181611 -1.5367179823 -0.0008943540 -0.0010116523 -1.5354917055 0.0000046166 0.0000039268 -1.5370423226 0.0007233988 0.0008160297 -1.5353994315 -0.0015028568 -0.0016991567 -1.5368293595 0.0010854553 0.0012250120 -1.5373014148 -0.0002435000 -0.0002763295 -1.5351095173 -0.0005766779 -0.0006528010 -1.5371072821 0.0014196228 0.0016025745 -1.5362165778 -0.0014236138 -0.0016096070 -1.5360261798 0.0003570742 0.0004021202 -1.5370600585 0.0003182259 0.0003582875 -1.5351372594 -0.0013740535 -0.0015536539 -1.5373278422 0.0014349217 0.0016198343 -1.5370426921 -0.0006193887 -0.0007009991 -1.5352432073 -0.0002069246 -0.0002350640 -1.5370105058 0.0010285938 0.0011608217 -1.5356159444 -0.0015272135 -0.0017266633 -1.5364676436 0.0007716915 0.0008705375 -1.5371467258 -0.0000311208 -0.0000363892 -1.5350453591 -0.0008445119 -0.0009553913 -1.5371414311 0.0014673307 0.0016564660 -1.5364624585 -0.0010882547 -0.0012307173 -1.5355848413 0.0001356768 0.0001519955 -1.5369861934 0.0005581051 0.0006292923 -1.5352131522 -0.0015224429 -0.0017212895 -1.5370068210 0.0013020717 0.0014697385 -1.5372661742 -0.0003801157 -0.0004306723 -1.5350860625 -0.0004286713 -0.0004855854 -1.5370048357 0.0013737161 0.0015507187 -1.5359489661 -0.0015225436 -0.0017213777 -1.5361387676 0.0005047144 0.0005689197 -1.5370273270 0.0001813905 0.0002036988 -1.5350324695 -0.0011594043 -0.0013111468 -1.5371870892 0.0014851322 0.0016765687 -1.5367602354 -0.0007841408 -0.0008871312 -1.5352813671 -0.0000757846 -0.0000869047 -1.5369419312 0.0008340075 0.0009409925 -1.5353629103 -0.0015622992 -0.0017663060 -1.5366085319 0.0009595349 0.0010827568 -1.5371270884 -0.0001616172 -0.0001838178 -1.5349945274 -0.0006742347 -0.0007630146 -1.5370221470 0.0014886749 0.0016805872 -1.5362149384 -0.0013012354 -0.0014713393 -1.5357209540 0.0002705076 0.0003043239 -1.5369427859 0.0004065797 0.0004581084 -1.5350707739 -0.0015022575 -0.0016984899 -1.5371793292 0.0014710911 0.0016606949 -1.5371184979 -0.0005246266 -0.0005939356 -1.5350857493 -0.0002897218 -0.0003286028 -1.5369226661 0.0011586423 0.0013077459 -1.5356124850 -0.0015740730 -0.0017795970 -1.5362516420 0.0006648568 0.0007498437 -1.5370028728 0.0000493676 0.0000545465 -1.5349548643 -0.0009587086 -0.0010844041 -1.5370563231 0.0015213656 0.0017175118 -1.5364901822 -0.0009660849 -0.0010926873 -1.5353514739 0.0000544164 0.0000601933 -1.5368875247 0.0006583964 0.0007425991 -1.5351688920 -0.0015852586 -0.0017922497 -1.5367780730 0.0011669935 0.0013171369 -1.5371018625 -0.0002949644 -0.0003344679 -1.5349650844 -0.0005188586 -0.0005874734 -1.5369251940 0.0014879065 0.0016797264 -1.5359658628 -0.0015180773 -0.0017163247 -1.5358974360 0.0004122197 0.0004644260 -1.5369093889 0.0002651891 0.0002983736 -1.5349623557 -0.0012928273 -0.0014618804 -1.5370873548 0.0015275867 0.0017245305 -1.5368214122 -0.0006805122 -0.0007700502 -1.5351095193 -0.0001565431 -0.0001781403 -1.5368566045 0.0009519184 0.0010742045 -1.5353458190 -0.0016114343 -0.0018218106 -1.5363882260 0.0008411475 0.0009490112 -1.5369825873 -0.0000808201 -0.0000925334 -1.5348998864 -0.0007774876 -0.0008796638 -1.5369457512 0.0015457930 0.0017451167 -1.5362307096 -0.0011675593 -0.0013203090 -1.5354584946 0.0001865643 0.0002094906 -1.5368444129 0.0004987991 0.0005622961 -1.5350202425 -0.0015946537 -0.0018028699 -1.5369770927 0.0013893480 0.0015683464 -1.5370542941 -0.0004342038 -0.0004917754 -1.5349559630 -0.0003747179 -0.0004246261 -1.5368464804 0.0012949499 0.0014617409 -1.5356301709 -0.0016124701 -0.0018229704 -1.5360352826 0.0005642020 0.0006361310 -1.5368833699 0.0001305555 0.0001462718 -1.5348808235 -0.0010804209 -0.0012219079 -1.5369745276 0.0015660436 0.0017679862 -1.5365351125 -0.0008514398 -0.0009631596 -1.5351599903 -0.0000261020 -0.0000307710 -1.5368033756 0.0007648148 0.0008628276 -1.5351406566 -0.0016372046 -0.0018509297 -1.5365504159 0.0010365038 0.0011697185 -1.5369600943 -0.0002120581 -0.0002408003 -1.5348646753 -0.0006133326 -0.0006942046 -1.5368540983 0.0015593583 0.0017604498 -1.5359783067 -0.0013867218 -0.00