<?xml version="1.0"?>
<VTKFile type="UnstructuredGrid" version="0.1" byte_order="LittleEndian">
  <UnstructuredGrid>
    <FieldData>
      <DataArray type="Float32" Name="TIME"  NumberOfTuples="1" format="ascii"> 0.4500000000 </DataArray>
      <DataArray type="Int32"   Name="STEP"  NumberOfTuples="1" format="ascii"> 45000 </DataArray>
    </FieldData>
    <Piece NumberOfPoints="2004" NumberOfCells="2004">
      <Points>
        <DataArray type="Float32" NumberOfComponents="3" format="ascii">
 0.0307088691 0.9991464725 -0.0022133763 -0.0413431264 0.9981039451 0.0347401618 0.0052924628 0.9956436086 -0.0725536174 0.0499062350 0.9958580749 0.0641543700 -0.0946307531 0.9989693291 -0.0188743824 0.0877672827 0.9969092517 -0.0585735898 -0.0304828396 0.9902334798 0.1074124730 -0.0571366259 0.9907287548 -0.1106531071 0.1221230011 0.9976196236 0.0427938991 -0.1290288841 0.9970473691 0.0505417954 0.0602993690 0.9868516157 -0.1328581400 0.0440706413 0.9838430981 0.1415375206 -0.1383349771 0.9946352140 -0.0819945564 0.1610790955 0.9982718054 -0.0377385977 -0.0986439965 0.9848701290 0.1365438378 -0.0232024544 0.9774620348 -0.1750756224 0.1382348528 0.9889463963 0.1151959832 -0.1903408637 0.9990926399 0.0054716407 0.1355750111 0.9858593131 -0.1379073125 -0.0100557287 0.9710084277 0.1923536566 -0.1302688810 0.9817313312 -0.1574642824 0.2078319286 0.9985358838 0.0259947168 -0.1762197063 0.9881420380 0.1195424391 0.0461015693 0.9673780739 -0.2106681214 0.1080816983 0.9722133593 0.1882578584 -0.2194696645 0.9957031327 -0.0721213732 0.2109038630 0.9923018996 -0.0999426429 -0.0904149310 0.9652208063 0.2111503209 -0.0803692592 0.9632428980 -0.2236186154 0.2168035777 0.9894387668 0.1123709355 -0.2446867463 0.9960623625 0.0618420525 0.1337772084 0.9671113372 -0.2114637859 0.0411895384 0.9538866779 0.2437482881 -0.2068626498 0.9807020210 -0.1619680233 0.2677776770 0.9988082927 -0.0243158362 -0.1817672280 0.9708008517 0.1929509766 0.0005353197 0.9477706948 -0.2657770618 0.1825908007 0.9686766349 0.2002976890 -0.2853475307 0.9986571825 -0.0287868898 0.2249976134 0.9778204808 -0.1734928422 -0.0507379215 0.9432280342 0.2704683247 -0.1523617730 0.9564163264 -0.2432944080 0.2882076403 0.9944406789 0.0772064929 -0.2686291515 0.9851756695 0.1349024337 0.1005899453 0.9437260237 -0.2755692322 0.1101234359 0.9430466454 0.2710046701 -0.2827432572 0.9862613191 -0.1360406177 0.3026957264 0.9928049285 -0.0956306828 -0.1560674577 0.9466966340 0.2620135567 -0.0647767057 0.9327373851 -0.3006338562 0.2614628300 0.9733284829 0.1843841571 -0.3318127945 0.9974237786 0.0387767076 0.2081912880 0.9547279115 -0.2476403804 0.0103578051 0.9238211520 0.3128685954 -0.2325895941 0.9584516663 -0.2376814561 0.3459595769 0.9977856399 0.0157324687 -0.2624916147 0.9644006683 0.2135449389 0.0444147287 0.9205224685 -0.3257401967 0.1901815449 0.9410990322 0.2756339547 -0.3507943083 0.9930974519 -0.0829924895 0.3091827938 0.9765538692 -0.1776860162 -0.1057510930 0.9201694565 0.3200531555 -0.1433960968 0.9258198546 -0.3152371643 0.3381413802 0.9828768469 0.1418611311 -0.3523681721 0.9859017767 0.1219578203 0.1650463420 0.9263624180 -0.3139155897 0.0865418366 0.9112764206 0.3371023472 -0.3154408407 0.9683080763 -0.2069800620 0.3800351738 0.9882011089 -0.0655474101 -0.2283331364 0.9355394334 0.2879767145 -0.0285200093 0.9023248030 -0.3594890692 0.2765037143 0.9487055334 0.2572183160 -0.3966872107 0.9811381903 -0.0063838670 0.2864063147 0.9498976020 -0.2600622791 -0.0368582777 0.8964004103 0.3632541293 -0.2308942671 0.9289329730 -0.3088449777 0.3966352614 0.9728685822 0.0723360772 -0.3437661037 0.9636090683 0.2108187310 0.1011684901 0.8979458347 -0.3669518423 0.1734971584 0.9085098294 0.3422228795 -0.3884368612 0.9680854658 -0.1483897812 0.3855605478 0.9664635130 -0.1571181879 -0.1708505019 0.9034028697 0.3511128877 -0.1137284959 0.8928864178 -0.3755859140 0.3619655350 0.9591445629 0.2131004624 -0.4097689911 0.9431154162 0.0831171263 0.2373431316 0.9162651097 -0.3338573801 0.0457581482 0.8798974336 0.3899157060 -0.3230320700 0.9413816649 -0.2795758736 0.4150215315 0.9154689999 -0.0152034162 -0.3063457016 0.9318292981 0.2953388863 0.0218544090 0.8746621417 -0.4042232855 0.2679310029 0.9168076372 0.3267522262 -0.4167681636 0.9014238917 -0.0627335485 0.3653003409 0.9446955523 -0.2514916951 -0.0956794157 0.8737320735 0.3991915515 -0.2081367089 0.8945510729 -0.3728828909 0.4092923887 0.9043146916 0.1332393963 -0.4035487984 0.9184040351 0.1786127577 0.1675789956 0.8815885698 -0.3935241287 0.1387867784 0.8738744757 0.3991333506 -0.3970401036 0.9204576226 -0.2158235187 0.4141525535 0.8705091398 -0.1072018416 -0.2440759233 0.8939229153 0.3672539522 -0.0689931564 0.8605552372 -0.4248100004 0.3626311053 0.9263533908 0.2853417694 -0.4200595560 0.8352372661 0.0278790945 0.3160978450 0.9130987331 -0.3379545282 -0.0075581478 0.8514575366 0.4309168090 -0.3090242025 0.9075821800 -0.3491857658 0.4180711980 0.8190690201 0.0407714403 -0.3800003496 0.9130360725 0.2791773570 0.0827896106 0.8517710346 -0.4368389661 0.2400764886 0.8801811513 0.3895929927 -0.4160490394 0.8220031614 -0.1209010049 0.4045403007 0.8588866356 -0.2051859176 -0.1636346526 0.8573061709 0.4228044642 -0.1690274842 0.8583213835 -0.4280071341 0.4055972311 0.8429355828 0.1954351829 -0.4159962138 0.8032120043 0.1207556674 0.2420974770 0.8724675474 -0.4073414812 0.0904875974 0.8400991947 0.4459779401 -0.3898037179 0.8788740663 -0.2847781235 0.4182883427 0.7674313730 -0.0503523826 -0.3238880668 0.8905527393 0.3691352797 -0.0129285996 0.8312930261 -0.4634981154 0.3450630733 0.8926220375 0.3561152151 -0.4206412299 0.7500709978 -0.0284110337 0.3817929855 0.8743379253 -0.3119641088 -0.0705567078 0.8278854240 0.4612435001 -0.2768215840 0.8692858155 -0.4121707559 0.4158549307 0.7501835953 0.0979250705 -0.4049695542 0.8040012800 0.2208927308 0.1523342046 0.8350893640 -0.4586216263 0.1969828555 0.8418995248 0.4437178498 -0.4107861755 0.7685789104 -0.1814848517 0.4128894555 0.7482309015 -0.1442920087 -0.2395529979 0.8481361823 0.4352047324 -0.1174266229 0.8231435132 -0.4735635726 0.3963283295 0.8045519517 0.2616202652 -0.4196289399 0.7116621812 0.0627662421 0.3230385193 0.8683674963 -0.4077512570 0.0318264070 0.8095828428 0.4830425766 -0.3731744832 0.8532949036 -0.3575150607 0.4190329753 0.6931220074 0.0058400679 -0.3819711579 0.8335227581 0.3327282297 0.0520545359 0.8069478966 -0.4924303806 0.3105695527 0.8562775512 0.4213118233 -0.4187842631 0.6909596517 -0.0852812552 0.4004211995 0.7590248231 -0.2466202442 -0.1416529092 0.8105535521 0.4818114742 -0.2300404775 0.8291817092 -0.4662518842 0.4110915556 0.7046294747 0.1573425703 -0.4130562038 0.7021434265 0.1578414765 0.2296277431 0.8256204777 -0.4703111112 0.1422465851 0.8048962449 0.4884502701 -0.4022138214 0.7365871359 -0.2460811943 0.4169983463 0.6656617582 -0.0857482003 -0.3216874937 0.8432021386 0.4347843814 -0.0562755320 0.7913674088 -0.5097567030 0.3819429723 0.7858616495 0.3336141425 -0.4209040486 0.6455461256 0.0061845098 0.3758700689 0.7984614176 -0.3626227626 -0.0350676741 0.7840943934 0.5109878821 -0.3441949558 0.8347006968 -0.4310973248 0.4177493504 0.6407310430 0.0622541528 -0.3989594379 0.7203070026 0.2625825739 0.1246336982 0.7888272024 -0.5123614788 0.2607669513 0.8152852728 0.4763625339 -0.4147228866 0.6512581933 -0.1439651692 0.4092088207 0.6643280578 -0.1822150330 -0.2202335513 0.8004375351 0.4931955091 -0.1722614372 0.7904260341 -0.5108477563 0.4034900626 0.6769568382 0.2204219721 -0.4178571040 0.6264419525 0.0982253779 0.3130785572 0.8201392737 -0.4698119930 0.0786653716 0.7714934751 0.5240385878 -0.3894886486 0.7217049149 -0.3162689236 0.4188746887 0.6051712811 -0.0290144343 -0.3720315025 0.7664316759 0.3827179888 0.0124751431 0.7646927415 -0.5372328835 0.3601516328 0.7818330930 0.4120279408 -0.4202171815 0.5981632842 -0.0501722252 0.3932943456 0.6890126248 -0.2894907790 -0.1090595403 0.7648682264 0.5305273905 -0.2960855550 0.8037575146 -0.4932259699 0.4143822561 0.6048195226 0.1201291873 -0.4087710455 0.6313776622 0.1962885050 0.2043890802 0.7778681580 -0.5238055410 0.2000060862 0.7744956310 0.5210732482 -0.4080538939 0.6267209158 -0.2058287520 0.4147892381 0.5933831200 -0.1218057080 -0.3051106175 0.7948055843 0.4933183191 -0.1062658391 0.7554239172 -0.5463387227 0.3921800322 0.6638657551 0.2886820514 -0.4203662943 0.5702898426 0.0409005923 0.3634075332 0.7409411784 -0.4135106361 0.0080839265 0.7433249301 0.5511876358 -0.3709024475 0.7210534036 -0.3935039036 0.4187838870 0.5611209219 0.0271527986 -0.3908384884 0.6610486543 0.3064608641 0.0878226477 0.7442820332 -0.5567222813 0.3239585397 0.7787728007 0.4903142095 -0.4175167701 0.5651488359 -0.1075554703 0.4043087220 0.6040896414 -0.2216613925 -0.1898781573 0.7527873681 0.5421826336 -0.2328680330 0.7624976478 -0.5394985902 0.4085797277 0.5820597914 0.1807891019 -0.4152018520 0.5642100049 0.1345784024 0.2906867008 0.7722726402 -0.5251494687 0.1315675434 0.7375637910 0.5565486637 -0.3980120210 0.6148441960 -0.2723596392 0.4179586872 0.5401475179 -0.0640637363 -0.3574852947 0.7171392187 0.4347041442 -0.0338485798 0.7257601043 -0.5735221833 0.3757143768 0.6633704645 0.3636890192 -0.4208729961 0.5289030283 -0.0154278157 0.3841363497 0.6386220089 -0.3348155904 -0.0685853532 0.7214755830 0.5706897219 -0.3431979765 0.7309725278 -0.4778321100 0.4167240623 0.5298771577 0.0839933576 -0.4032112888 0.5794120685 0.2365093317 0.1696082986 0.7309558445 -0.5687875064 0.2632602668 0.7483293313 0.5456331139 -0.4125205132 0.5437888785 -0.1672697768 0.4116623140 0.5394243385 -0.1588649134 -0.2774348054 0.7470566910 0.5449957831 -0.1619261022 0.7237171365 -0.5753969350 0.3996868060 0.5704613876 0.2456760983 -0.4190654746 0.5133814024 0.0760131203 0.3468097492 0.6988103727 -0.4670527331 0.0572750286 0.7061357503 0.5837770948 -0.3833468293 0.6141543282 -0.3451378737 0.4190678934 0.5004367618 -0.0076740804 -0.3805466309 0.6176775618 0.3530656473 0.0441355017 0.7024453319 -0.5932731422 0.3517622196 0.6738656372 0.4466645752 -0.4194343321 0.499147
[...]
      <PointData Scalars="material ID">
        <DataArray type="Int32" Name="material ID" format="ascii">
 0 0 0 0 0 0 0 0 0 0 0 0 0 0 0 0 0 0 0 0 0 0 0 0 0 0 0 0 0 0 0 0 0 0 0 0 0 0 0 0 0 0 0 0 0 0 0 0 0 0 0 0 0 0 0 0 0 0 0 0 0 0 0 0 0 0 0 0 0 0 0 0 0 0 0 0 0 0 0 0 0 0 0 0 0 0 0 0 0 0 0 0 0 0 0 0 0 0 0 0 0 0 0 0 0 0 0 0 0 0 0 0 0 0 0 0 0 0 0 0 0 0 0 0 0 0 0 0 0 0 0 0 0 0 0 0 0 0 0 0 0 0 0 0 0 0 0 0 0 0 0 0 0 0 0 0 0 0 0 0 0 0 0 0 0 0 0 0 0 0 0 0 0 0 0 0 0 0 0 0 0 0 0 0 0 0 0 0 0 0 0 0 0 0 0 0 0 0 0 0 0 0 0 0 0 0 0 0 0 0 0 0 0 0 0 0 0 0 0 0 0 0 0 0 0 0 0 0 0 0 0 0 0 0 0 0 0 0 0 0 0 0 0 0 0 0 0 0 0 0 0 0 0 0 0 0 0 0 0 0 0 0 0 0 0 0 0 0 0 0 0 0 0 0 0 0 0 0 0 0 0 0 0 0 0 0 0 0 0 0 0 0 0 0 0 0 0 0 0 0 0 0 0 0 0 0 0 0 0 0 0 0 0 0 0 0 0 0 0 0 0 0 0 0 0 0 0 0 0 0 0 0 0 0 0 0 0 0 0 0 0 0 0 0 0 0 0 0 0 0 0 0 0 0 0 0 0 0 0 0 0 0 0 0 0 0 0 0 0 0 0 0 0 0 0 0 0 0 0 0 0 0 0 0 0 0 0 0 0 0 0 0 0 0 0 0 0 0 0 0 0 0 0 0 0 0 0 0 0 0 0 0 0 0 0 0 0 0 0 0 0 0 0 0 0 0 0 0 0 0 0 0 0 0 0 0 0 0 0 0 0 0 0 0 0 0 0 0 0 0 0 0 0 0 0 0 0 0 0 0 0 0 0 0 0 0 0 0 0 0 0 0 0 0 0 0 0 0 0 0 0 0 0 0 0 0 0 0 0 0 0 0 0 0 0 0 0 0 0 0 0 0 0 0 0 0 0 0 0 0 0 0 0 0 0 0 0 0 0 0 0 0 0 0 0 0 0 0 0 0 0 0 0 0 0 0 0 0 0 0 0 0 0 0 0 0 0 0 0 0 0 0 0 0 0 0 0 0 0 0 0 0 0 0 0 0 0 0 0 0 0 0 0 0 0 0 0 0 0 0 0 0 0 0 0 0 0 0 0 0 0 0 0 0 0 0 0 0 0 0 0 0 0 0 0 0 0 0 0 0 0 0 0 0 0 0 0 0 0 0 0 0 0 0 0 0 0 0 0 0 0 0 0 0 0 0 0 0 0 0 0 0 0 0 0 0 0 0 0 0 0 0 0 0 0 0 0 0 0 0 0 0 0 0 0 0 0 0 0 0 0 0 0 0 0 0 0 0 0 0 0 0 0 0 0 0 0 0 0 0 0 0 0 0 0 0 0 0 0 0 0 0 0 0 0 0 0 0 0 0 0 0 0 0 0 0 0 0 0 0 0 0 0 0 0 0 0 0 0 0 0 0 0 0 0 0 0 0 0 0 0 0 0 0 0 0 0 0 0 0 0 0 0 0 0 0 0 0 0 0 0 0 0 0 0 0 0 0 0 0 0 0 0 0 0 0 0 0 0 0 0 0 0 0 0 0 0 0 0 0 0 0 0 0 0 0 0 0 0 0 0 0 0 0 0 0 0 0 0 0 0 0 0 0 0 0 0 0 0 0 0 0 0 0 0 0 0 0 0 0 0 0 0 0 0 0 0 0 0 0 0 0 0 0 0 0 0 0 0 0 0 0 0 0 0 0 0 0 0 0 0 0 0 0 0 0 0 0 0 0 0 0 0 0 0 0 0 0 0 0 0 0 0 0 0 0 0 0 0 0 0 0 0 0 0 0 0 0 0 0 0 0 0 0 0 0 0 0 0 0 0 0 0 0 0 0 0 0 0 0 0 0 0 0 0 0 0 0 0 0 0 0 0 0 0 0 0 0 0 0 0 0 0 0 0 0 0 0 0 0 0 0 0 0 0 0 0 0 0 0 0 0 0 0 0 0 0 0 0 0 0 0 0 0 0 0 0 0 0 0 0 0 0 0 0 0 0 0 0 0 0 0 0 0 0 0 0 0 0 0 0 0 0 0 0 0 0 0 0 0 0 0 0 0 0 0 0 0 0 0 0 0 0 0 0 0 0 0 0 0 0 0 0 0 0 0 0 0 0 0 0 0 0 0 0 0 0 0 0 0 0 0 0 0 0 0 0 0 0 0 0 0 0 0 0 0 0 0 0 0 0 0 0 0 0 0 0 0 0 0 0 0 0 0 0 0 0 0 0 0 0 0 0 0 0 0 0 0 0 0 0 0 0 0 0 0 0 0 0 0 0 0 0 0 0 0 0 0 0 0 0 0 0 0 0 0 0 0 0 0 0 0 0 0 0 0 0 0 0 0 0 0 0 0 0 0 0 0 0 0 0 0 0 0 0 0 0 0 0 0 0 0 0 0 0 0 0 0 0 0 0 0 0 0 0 0 0 0 0 0 0 0 0 0 0 0 0 0 0 0 0 0 0 0 0 0 0 0 0 0 0 0 0 0 0 0 0 0 0 0 0 0 0 0 0 0 0 0 0 0 0 0 0 0 0 0 0 0 0 0 0 0 0 0 0 0 0 0 0 0 0 0 0 0 0 0 0 0 0 0 0 0 0 0 0 0 0 0 0 0 0 0 0 0 0 0 0 0 0 0 0 0 0 0 0 0 0 0 0 0 0 0 0 0 0 0 0 0 0 0 0 0 0 0 0 0 0 0 0 0 0 0 0 0 0 0 0 0 0 0 0 0 0 0 0 0 0 0 0 0 0 0 0 0 0 0 0 0 0 0 0 0 0 0 0 0 0 0 0 0 0 0 0 0 0 0 0 0 0 0 0 0 0 0 0 0 0 0 0 0 0 0 0 0 0 0 0 0 0 0 0 0 0 0 0 0 0 0 0 0 0 0 0 0 0 0 0 0 0 0 0 0 0 0 0 0 0 0 0 0 0 0 0 0 0 0 0 0 0 0 0 0 0 0 0 0 0 0 0 0 0 0 0 0 0 0 0 0 0 0 0 0 0 0 0 0 0 0 0 0 0 0 0 0 0 0 0 0 0 0 0 0 0 0 0 0 0 0 0 0 0 0 0 0 0 0 0 0 0 0 0 0 0 0 0 0 0 0 0 0 0 0 0 0 0 0 0 0 0 0 0 0 0 0 0 0 0 0 0 0 0 0 0 0 0 0 0 0 0 0 0 0 0 0 0 0 0 0 0 0 0 0 0 0 0 0 0 0 0 0 0 0 0 0 0 0 0 0 0 0 0 0 0 0 0 0 0 0 0 0 0 0 0 0 0 0 0 0 0 0 0 0 0 0 0 0 0 0 0 0 0 0 0 0 0 0 0 0 0 0 0 0 0 0 0 0 0 0 0 0 0 0 0 0 0 0 0 0 0 0 0 0 0 0 0 0 0 0 0 0 0 0 0 0 0 0 0 0 0 0 0 0 0 0 0 0 0 0 0 0 0 0 0 0 0 0 0 0 0 0 0 0 0 0 0 0 0 0 0 0 0 0 0 0 0 0 0 0 0 0 0 0 0 0 0 0 0 0 0 0 0 0 0 0 0 0 0 0 0 0 0 0 0 0 0 0 0 0 0 0 0 0 0 0 0 0 0 0 0 0 0 0 0 0 0 0 0 0 0 0 0 0 0 0 0 0 0 0 0 0 0 0 0 0 0 0 0 0 0 0 0 0 0 0 0 0 0 0 0 0 0 0 0 0 0 0 0 0 0 0 0 0 0 0 0 0 0 0 0 0 0 0 0 0 0 0 0 0 0 0 0 0 0 0 0 0 0 0 0 0 0 0 0 0 0 0 0 0 0 0 0 0 0 0 0 0 0 0 0 0 0 0 0 0 0 0 0 0 0 0 0 0 0 0 0 0 0 0 0 0 0 0 0 0 0 0 0 0 0 0 0 0 0 0 0 0 0 0 0 0 0 0 0 0 0 0 0 0 0 0 0 0 0 0 0 0 0 0 0 0 0 0 0 0 0 0 0 0 0 0 0 0 0 0 0 0 0 0 0 0 0 0 0 0 0 0 0 0 0 0 0 0 0 0 0 0 0 0 0 0 0 0 0 0 0 0 0 0 0 0 0 0 0 0 0 0 0 0 0 0 0 0 0 0 0 0 0 0 0 0 0 0 0 0 0 0 0 0 0 0 0 0 0 0 0 0 0 0 0 0 0 0 0 0 0 0 0 0 0 0 0 0 0 0 0 0 0 0 0 0 0 0 0 0 0 0 0 0 0 0 0 0 0 0 0 0 0 0 0 0 0 0 0 0 0 0 0 0 0 0 0 0 0 0
        </DataArray>
        <DataArray type="Float32" Name="velocity" NumberOfComponents="3" format="ascii">
 -0.0040374435 -0.0036690018 -0.2690526807 -0.0039526716 -0.0034743804 -0.2688819019 -0.0041987145 -0.0040421377 -0.2689758261 -0.0038851717 -0.0033170178 -0.2690792863 -0.0040756534 -0.0037593498 -0.2687642697 -0.0041666715 -0.0039667018 -0.2691716924 -0.0037858645 -0.0030891272 -0.2688651067 -0.0042860165 -0.0042450469 -0.2688065993 -0.0039341920 -0.0034290123 -0.2692542529 -0.0039164124 -0.0033920958 -0.2686751919 -0.0043368809 -0.0043607715 -0.2690554002 -0.0037074918 -0.0029070780 -0.2690022374 -0.0042203511 -0.0040945294 -0.2686410665 -0.0041189079 -0.0038550941 -0.2693470563 -0.0037189620 -0.0029358897 -0.2686803566 -0.0044335540 -0.0045858482 -0.2688141316 -0.0037679915 -0.0030451045 -0.2692452487 -0.0040198166 -0.0036319225 -0.2685454074 -0.0043484451 -0.0043862858 -0.2692227905 -0.0035907312 -0.0026387065 -0.2688100880 -0.0043932319 -0.0044942937 -0.2685911917 -0.0039727368 -0.0035166153 -0.2694556855 -0.0037580094 -0.0030272544 -0.2685197702 -0.0045150210 -0.0047733030 -0.2689196510 -0.0036001449 -0.0026584628 -0.2690874265 -0.0041977241 -0.0040435504 -0.2684606389 -0.0042614774 -0.0041838784 -0.2694296986 -0.0035475248 -0.0025404311 -0.2685951130 -0.0045446554 -0.0048440085 -0.2686076728 -0.0037744790 -0.0030587793 -0.2694280588 -0.0038904785 -0.0033341238 -0.2684047058 -0.0045168415 -0.0047760746 -0.2691193259 -0.0034725730 -0.0023655336 -0.2688368971 -0.0044035445 -0.0045194199 -0.2684100661 -0.0040881310 -0.0037822119 -0.2695946173 -0.0035893578 -0.0026383704 -0.2684151596 -0.0046410929 -0.0050660637 -0.2687112475 -0.0035724727 -0.0025934389 -0.2692395763 -0.0040983830 -0.0038150161 -0.2683251977 -0.0044299297 -0.0045733722 -0.2693852895 -0.0034111138 -0.0022254646 -0.2685695794 -0.0045896703 -0.0049494522 -0.2684063820 -0.0038552127 -0.0032439314 -0.2696183314 -0.0037227317 -0.0029473877 -0.2682921066 -0.0046634851 -0.0051163017 -0.2689192958 -0.0034098806 -0.0022199724 -0.2689375614 -0.0043441703 -0.0043832866 -0.2682654878 -0.0042515960 -0.0041595180 -0.2696428931 -0.0034305623 -0.0022719999 -0.2683463804 -0.0047207909 -0.0052518380 -0.2684817932 -0.0036090478 -0.0026764616 -0.2694451222 -0.0039434024 -0.0034577773 -0.2682120919 -0.0045996102 -0.0049665402 -0.2692243811 -0.0033135470 -0.0019997886 -0.2686068726 -0.0045768303 -0.0049210322 -0.2682331605 -0.0039962614 -0.0035687169 -0.2697685124 -0.0035420191 -0.0025305776 -0.2681961012 -0.0047781723 -0.0053830719 -0.2686675048 -0.0033992311 -0.0021941239 -0.2691108585 -0.0042226146 -0.0041033176 -0.2681456326 -0.0044395261 -0.0045942039 -0.2695716608 -0.0032970087 -0.0019636321 -0.2683212218 -0.0047541703 -0.0053305130 -0.2682648214 -0.0037067337 -0.0029005183 -0.2696715827 -0.0037524327 -0.0030173579 -0.2681038946 -0.0047511482 -0.0053184285 -0.2689751237 -0.0032577590 -0.0018701242 -0.2687151326 -0.0045065775 -0.0047597174 -0.2680953642 -0.0041825228 -0.0039988393 -0.2697958802 -0.0033708308 -0.0021356176 -0.2681215161 -0.0048552771 -0.0055631012 -0.2684038002 -0.0034415935 -0.0022902820 -0.2693491477 -0.0040467120 -0.0036981419 -0.2679770056 -0.0046280208 -0.0050310724 -0.2693781763 -0.0031975336 -0.0017335848 -0.2683532839 -0.0047395608 -0.0052980838 -0.2680806359 -0.0038660278 -0.0032679522 -0.2697527096 -0.0035482587 -0.0025463622 -0.2680054998 -0.0048723212 -0.0056005081 -0.2686780438 -0.0032459693 -0.0018415590 -0.2688999092 -0.0043721943 -0.0044504634 -0.2679267647 -0.0043921866 -0.0044839612 -0.2696933702 -0.0032254955 -0.0018001261 -0.2680830709 -0.0048920405 -0.0056497986 -0.2681583586 -0.0035429519 -0.0025226446 -0.2696004725 -0.0038408108 -0.0032241117 -0.2677455278 -0.0047967193 -0.0054229044 -0.2690874365 -0.0031361121 -0.0015909500 -0.2684553231 -0.0046726359 -0.0051445114 -0.2679352763 -0.0040658581 -0.0037315014 -0.2694907319 -0.0033538841 -0.0020978924 -0.2679229314 -0.0049574214 -0.0057993078 -0.2683727581 -0.0032815887 -0.0019219787 -0.2691604660 -0.0041746393 -0.0039970570 -0.2675085609 -0.0046082781 -0.0049843590 -0.2695315590 -0.0031147359 -0.0015441296 -0.2680982605 -0.0048858684 -0.0056370313 -0.2679506495 -0.0037252137 -0.0029450307 -0.2694184877 -0.0036213799 -0.0027179994 -0.2676288541 -0.0049329965 -0.0057402145 -0.2687436859 -0.0031148718 -0.0015405751 -0.2686367744 -0.0045260721 -0.0048079213 -0.2676546636 -0.0042761202 -0.0042189947 -0.2692505067 -0.0031883190 -0.0017158047 -0.2678648927 -0.0050044056 -0.0059098890 -0.2680896456 -0.0033767228 -0.0021398431 -0.2694282460 -0.0039657245 -0.0035169752 -0.2671503038 -0.0048060641 -0.0054433168 -0.2692512863 -0.0030416056 -0.0013745728 -0.2681823430 -0.0048317326 -0.0055131278 -0.2677883081 -0.0039358889 -0.0034348529 -0.2689869247 -0.0033906417 -0.0021847422 -0.2676544199 -0.0050318499 -0.0059711271 -0.2683912210 -0.0031368569 -0.0015894585 -0.2689025048 -0.0043067407 -0.0043052614 -0.2670893776 -0.0045006598 -0.0047383486 -0.2691668755 -0.0030603080 -0.0014201297 -0.2678553647 -0.0050117015 -0.0059284780 -0.2678483754 -0.0035815535 -0.0026155300 -0.2690847786 -0.0037521800 -0.0030247762 -0.2669899286 -0.0049645370 -0.0058122018 -0.2688662674 -0.0030068750 -0.0012931519 -0.2683470303 -0.0046835376 -0.0051731770 -0.2674509186 -0.0041440350 -0.0039176940 -0.2687138064 -0.0031839485 -0.0017071509 -0.2676639820 -0.0050926565 -0.0061139649 -0.2680631784 -0.0032138448 -0.0017651200 -0.2692092180 -0.0040934254 -0.0038152535 -0.2666976928 -0.0047458152 -0.0053045170 -0.2691965764 -0.0029716615 -0.0012149164 -0.2679129495 -0.0049755607 -0.0058463405 -0.2676592426 -0.0038036694 -0.0031320452 -0.2686168332 -0.0035225239 -0.0024939907 -0.2670194010 -0.0050815346 -0.0060854027 -0.2684623325 -0.0030120883 -0.0013033730 -0.2686008218 -0.0044448124 -0.0046261949 -0.2668183651 -0.0043591736 -0.0044155479 -0.2685996848 -0.0030317163 -0.0013556743 -0.2676326527 -0.0051156078 -0.0061690212 -0.2677803248 -0.0034291224 -0.0022649829 -0.2688601337 -0.0038836732 -0.0033321090 -0.2664964949 -0.0049654092 -0.0058130396 -0.2690301843 -0.0029213627 -0.0010977212 -0.2680507888 -0.0048499418 -0.0055583197 -0.2673535204 -0.0040139306 -0.0036199306 -0.2683217657 -0.0032665103 -0.0019010206 -0.2672285766 -0.0051586129 -0.0062661998 -0.2680832210 -0.0030637145 -0.0014202261 -0.2689375242 -0.0042228861 -0.0041165655 -0.2663887341 -0.0045940461 -0.0049579677 -0.2686282829 -0.0029242023 -0.0011071027 -0.2676580493 -0.0050989376 -0.0061321335 -0.2675540346 -0.0036666420 -0.0028172837 -0.2683645271 -0.0036654568 -0.0028282184 -0.2664611320 -0.0051081890 -0.0061460692 -0.2685894354 -0.0029088827 -0.0010672478 -0.2682792095 -0.0045924401 -0.0049683352 -0.2666685090 -0.0042235402 -0.0041052698 -0.2681715934 -0.0030325991 -0.0013592548 -0.2674181289 -0.0051980950 -0.0063597929 -0.2677522033 -0.0032636931 -0.0018837405 -0.2687281045 -0.0040123568 -0.0036319438 -0.2661432362 -0.0048607532 -0.0055730434 -0.2687809393 -0.0028568489 -0.0009507474 -0.2677623064 -0.0050183999 -0.0059477382 -0.2673214598 -0.0038836791 -0.0033210262 -0.2680412137 -0.0034255274 -0.0022729866 -0.2665897083 -0.0052040273 -0.0063706145 -0.2681536672 -0.0029367777 -0.0011293453 -0.2686060907 -0.0043568263 -0.0044274514 -0.2661876800 -0.0044447695 -0.0046165542 -0.2681466608 -0.0028979258 -0.0010480759 -0.2674242183 -0.0052005818 -0.0063674851 -0.2674811960 -0.0035215105 -0.0024831654 -0.2682004616 -0.0038009419 -0.0031441898 -0.2660489958 -0.0051069539 -0.0061420496 -0.2687517901 -0.0028267089 -0.0008797208 -0.2679563892 -0.0047531738 -0.0053400345 -0.2666188373 -0.0040924220 -0.0038046194 -0.2678553715 -0.0031507510 -0.0016359724 -0.2668958731 -0.0052606734 -0.0065042503 -0.2677685432 -0.0030837810 -0.0014686024 -0.2686567786 -0.0041408330 -0.0039305542 -0.2658937406 -0.0046912183 -0.0051852464 -0.2682409582 -0.0028117174 -0.0008484310 -0.2674907274 -0.0051603851 -0.0062761513 -0.2672678400 -0.0037503483 -0.0030144149 -0.2678432040 -0.0035761108 -0.0026244256 -0.2660959884 -0.0052300942 -0.0064299400 -0.2682785205 -0.0028335595 -0.0008934344 -0.2682505976 -0.0044983091 -0.0047551428 -0.2660729581 -0.0043050490 -0.0042963668 -0.2677835385 -0.0028975514 -0.0010488235 -0.2671997063 -0.0052814054 -0.0065544564 -0.2674470917 -0.0033647371 -0.0021216569 -0.2681051548 -0.0039314939 -0.0034479823 -0.2657457035 -0.0049765192 -0.0058428922 -0.2684475691 -0.0027639772 -0.0007370270 -0.2676452485 -0.0049303052 -0.0057489791 -0.2666580134 -0.0039628741 -0.0035070033 -0.2676217503 -0.0033239141 -0.0020403516 -0.2662943375 -0.0053050370 -0.0066062789 -0.2678332045 -0.0029041773 -0.0010543774 -0.2685575522 -0.0042719003 -0.0042345706 -0.2657249980 -0.0045342492 -0.0048256523 -0.2678162324 -0.0027847865 -0.0007880040 -0.2672413524 -0.0052658338 -0.0065202979 -0.2671942056 -0.0036108469 -0.0026930872 -0.2677092969 -0.0037165392 -0.0029515195 -0.2657253327 -0.0052330844 -0.0064356394 -0.2684467988 -0.0027515865 -0.0007065857 -0.2678979370 -0.0046507052 -0.0051075095 -0.2660330576 -0.0041717380 -0.0039903528 -0.2675087243 -0.0030307062 -0.0013602698 -0.2666680459 -0.0053432632 -0.0066973024 -0.2674560022 -0.0031926969 -0.0017244831 -0.2680647656 -0.0040600039 -0.0037464622 -0.2655252419 -0.0047943427 -0.0054255633 -0.2679529453 -0.0027188882 -0.0006349530 -0.2673536291 -0.0051238794 -0.0061953589 -0.2667741141 -0.0038319928 -0.0032058519 -0.2674514723 -0.0034830063 -0.0024112129 -0.2658333859 -0.0053324896 -0.0066688623 -0.2679501713 -0.0027767992 -0.0007622550 -0.2682570247 -0.0044085059 -0.0045509010 -0.2656232755 -0.0043891571 -0.0044927867 -0.2674904513 -0.0027782400 -0.0007745403 -0.2670101714 -0.0053475294 -0.0067093464 -0.2671514251 -0.0034618344 -0.0023494121 -0.2676274432 -0.0038500241 -0.0032619074 -0.2654471419 -0.0050986265 -0.0061268732 -0.2681862596 -0.0026886190 -0.0005635323 -0.2675610135 -0.0048176142 -0.0054929034 -0.2660630374 -0.0040417514 -0.0036915384 -0.2673008499 -0.0032163093 -0.0017932338 -0.2660881286 -0.0053881789 -0.0068006734 -0.2675113227 -0.0030025614 -0.0012852089 -0.2680654418 -0.0041892919 -0.0040462645 -0.2653708719 -0.0046283784 -0.0050449352 -0.2675633712 -0.0026900040 -0.0005701467 -0.2670856586 -0.0053023083 -0.0066067754 -0.2668865062 -0.0036968143 -0.0028944091 -0.2673317913 -0.0036296060 -0.0027524202 -0.2654827951 -0.0053422372 -0.0066901628 -0.2681199226 -0.0026919017 -0.0005688624 -0.2678747762 -0.0045538522 -0.0048869969 -0.2655810941 -0.0042524527 -0.0041787611 -0.2672395819 -0.0029041561 -0.0010689813 -0.2665177220 -0.0054102243 -0.0068541964 -0.2671505518 -0.0032997167 -0.0019751482 -0.2675890059 -0.0039796199 -0.0035627965 -0.2652405268 -0.0049042774 -0.0056811570 -0.2677285624 -0.0026424173 -0.0004590508 -0.2672466609 -0.0050023701 -0.0059190336 -0.2661619814 -0.0039121692 -0.0033932822 -0.2671453611 -0.0033851924 -0.0021866174 -0.2656407825 -0.0054178022 -0.0068683563 -0.2676165547 -0.0027983517 -0.0008133669 -0.2680733749 -0.0043222246 -0.0043540879 -0.2652721318 -0.0044765502 -0.0046963447 -0.2672602021 -0.0026771376 -0.0005421730 -0.2668418353 -0.0053997763 -0.0068321020 -0.2668660852 -0.0035541790 -0.0025654378 -0.2672540468 -0.0037671749 -0.0030721605 -0.2652161636 -0.0052274499 -0.0064260497 -0.2679696337 -0.0026274227 -0.0004225249 -0.2675089358 -0.0047114353 -0.0052509571 -0.2655955114 -0.0041209011 -0.0038762251 -0.2670464681 -0.0031018503 -0.0015298249 -0.2659453956 -0.0054565147 -0.0069608258 -0.2671944307 -0.0031209409 -0.0015621440 -0.2675861148 -0.0041082081 -0.0038609438 -0.2650915009 -0.0047279633 -0.0052764501 -0.2673623248 -0.0026111285 -0.0003888387 -0.2669578996 -0.0052061810 -0.0063886972 -0.2663290326 -0.0037800973 -0.0030889695 -0.2670322296 -0.0035392931 -0.0025451014 -0.2652975434 -0.0054329163 -0.0069021306 -0.2677757730 -0.0026475354 -0.0004663376 -0.2678783461 -0.0044618490 -0.0046770140 -0.2652230748 -0.0043352103 -0.0043715064 -0.2670237110 -0.0027718744 -0.0007640524 -0.2664229169 -0.0054645102 -0.0069817402 -0.2668544499 -0.0034006504 -0.0022110435 -0.2672119707 -0.0038989465 -0.0033780376 -0.2650149240 -0.0050216244 -0.0059535795 -0.2675453443 -0.0025794912 -0.0003142281 -0.2671693595 -0.0048848676 -0.0056511239 -0.2656669512 -0.0039915079 -0.0035783479 -0.2668989785 -0.0032817503 -0.0019486504 -0.2654995061 -0.0054885090 -0.0070340860 -0.2672857861 -0.0029230748 -0.0011048567 -0.2676080938 -0.0042386232 -0.0041629635 -0.2649909617 -0.0045679903 -0.0049089390 -0.2670735795 -0.0025936275 -0.0003502928 -0.2666952930 -0.0054107469 -0.0068598657 -0.2665294282 -0.0036425213 -0.0027716869 -0.2669544354 -0.0036821776 -0.0028770989 -0.2650341754 -0.0053605319 -0.0067349282 -0.2677719984 -0.0025777895 -0.0003080038 -0.2674885644 -0.0046114900 -0.0050227423 -0.2652212566 -0.0042009487 -0.0040626476 -0.2668392037 -0.0029800152 -0.0012490299 -0.2658506923 -0.0055126419 -0.0070927125 -0.2668859430 -0.0032325937 -0.0018228678 -0.2672001295 -0.0040279109 -0.0036770516 -0.2648662452 -0.0048338216 -0.0055222033 -0.2671967524 -0.0025457457 -0.0002385027 -0.2668580084 -0.0050771266 -0.0060943595 -0.2657977834 -0.0038613905 -0.0032785318 -0.2667884915 -0.0034447319 -0.0023276597 -0.2651551836 -0.0055076102 -0.0070771912 -0.2674283583 -0.0027088228 -0.0006096983 -0.2676321283 -0.0043737939 -0.0044756612 -0.2649334482 -0.0044207121 -0.0045703180 -0.2668459393 -0.0026389037 -0.0004572821 -0.2663628527 -0.0055082732 -0.0070849048 -0.2665677886 -0.0034961863 -0.0024339516 -0.2669068601 -0.0038172638 -0.0031906328 -0.2648330549 -0.0051465828 -0.0062434057 -0.2673872950 -0.0025277351 -0.0001950029 -0.2671211055 -0.0047747345 -0.0053995562 -0.2652671026 -0.0040706450 -0.0037626366 -0.2666959261 -0.0031718235 -0.0016954155 -0.2653980757 -0.0055469559 -0.0071714369 -0.2669626482 -0.0030466811 -0.0013932703 -0.2672118589 -0.0041569235 -0.0039758614 -0.2647614889 -0.0046642963 -0.0051325520 -0.2669180106 -0.0025245445 -0.0001915590 -0.2665743827 -0.0052883620 -0.0065810009 -0.2659891897 -0.0037276318 -0.0029700819 -0.2667088232 -0.0035942419 -0.0026749812 -0.2648894103 -0.0054872560 -0.0070292496 -0.2675560778 -0.0025414917 -0.0002241338 -0.2674901407 -0.0045168704 -0.0048063328 -0.2649164080 -0.0042825519 -0.0042524164 -0.2666664253 -0.0028508737 -0.0009510835 -0.2657938012 -0.0055587294 -0.0072013350 -0.2665870870 -0.0033375600 -0.0020676327 -0.2668852705 -0.0039476929 -0.0034930501 -0.2646816786 -0.0049466913 -0.0057839837 -0.2670550626 -0.0024916297 -0.0001140003 -0.2667853847 -0.0049550960 -0.0058155539 -0.2653632664 -0.0039413714 -0.0034647659 -0.2665860318 -0.0033450343 -0.0020981091 -0.2650465283 -0.0055693475 -0.0072222727 -0.2670872975 -0.0028414389 -0.0009189278 -0.2672357945 -0.0042888439 -0.0042811129 -0.2646951925 -0.0045097147 -0.0047770172 -0.2666960410 -0.0025253061 -0.0001952979 -0.2662988428 -0.0055034000 -0.0070761357 -0.2662212174 -0.0035871414 -0.0026458910 -0.2666554195 -0.0037338439 -0.0029989731 -0.2646847824 -0.0052785667 -0.0065493774 -0.2672411680 -0.0024851816 -0.0000968333 -0.2671013816 -0.0046712937 -0.0051629286 -0.2649397764 -0.0041502242 -0.0039477149 -0.2665251726 -0.0030547235 -0.0014253758 -0.2653290043 -0.0055952434 -0.0072852457 -0.2666493753 -0.0031630294 -0.0016644172 -0.2668850195 -0.0040763944 -0.0037911810 -0.2645713915 -0.0047663155 -0.0053692057 -0.2667845166 -0.0024673241 -0.0000600429 -0.2664797119 -0.0051548800 -0.0062760366 -0.2655132935 -0.0038102543 -0.0031624374 -0.2665037726 -0.0035025428 -0.0024639576 -0.2647740636 -0.0055783806 -0.0072419103 -0.2672587472 -0.0026215161 -0.0004107482 -0.2672487068 -0.0044266755 -0.0045997658 -0.2646644432 -0.0043664061 -0.0044472007 -0.2665193943 -0.0027155685 -0.0006386813 -0.2657669431 -0.0055964870 -0.0072906471 -0.2662974052 -0.0034365574 -0.0022982184 -0.2666246297 -0.0038668572 -0.0033073949 -0.2645286415 -0.0050670684 -0.0060630036 -0.2669279545 -0.0024468255 -0.000010