<?xml version="1.0"?>
<VTKFile type="UnstructuredGrid" version="0.1" byte_order="LittleEndian">
  <UnstructuredGrid>
    <FieldData>
      <DataArray type="Float32" Name="TIME"  NumberOfTuples="1" format="ascii"> 0.6000000000 </DataArray>
      <DataArray type="Int32"   Name="STEP"  NumberOfTuples="1" format="ascii"> 60000 </DataArray>
    </FieldData>
    <Piece NumberOfPoints="2004" NumberOfCells="2004">
      <Points>
        <DataArray type="Float32" NumberOfComponents="3" format="ascii">
 0.0301071387 0.9985935250 -0.1513223785 -0.0419575682 0.9975218146 -0.1143944710 0.0047149251 0.9951466361 -0.2216741214 0.0492816631 0.9952523283 -0.0849506663 -0.0952267445 0.9984299510 -0.1680266399 0.0871849335 0.9964009521 -0.2076647192 -0.0311223021 0.9895935624 -0.0417247064 -0.0577010639 0.9902622286 -0.2597989808 0.1215057777 0.9970306657 -0.1062848842 -0.1296487595 0.9964529082 -0.0986238497 0.0597425543 0.9864024334 -0.2819666853 0.0434194194 0.9831758652 -0.0075791021 -0.1389092606 0.9941461202 -0.2311652707 0.1604895772 0.9977467541 -0.1868034303 -0.0992934896 0.9842072370 -0.0126210649 -0.0237447619 0.9770466284 -0.3242203421 0.1375926996 0.9882998528 -0.0338841780 -0.1909452251 0.9985341608 -0.1437134551 0.1350199266 0.9854139479 -0.2869907474 -0.0107244599 0.9703009504 0.0432081926 -0.1308172311 0.9813022049 -0.3066424495 0.2072204818 0.9979600543 -0.1230538455 -0.1768633381 0.9874928602 -0.0296465451 0.0455714791 0.9669907794 -0.3597969999 0.1074143721 0.9715088290 0.0391539965 -0.2200473374 0.9952064027 -0.2213191552 0.2103357280 0.9918261610 -0.2489950559 -0.0910901376 0.9644986006 0.0619726037 -0.0808948961 0.9628662279 -0.3727942857 0.2161623928 0.9887942636 -0.0366818032 -0.2453105047 0.9954592220 -0.0873641697 0.1332473862 0.9667244465 -0.3605627130 0.0405030828 0.9531382232 0.0946068260 -0.2074094483 0.9802766744 -0.3111733576 0.2671835358 0.9982722944 -0.1733435398 -0.1824361550 0.9700933476 0.0437462732 0.0000241458 0.9474273268 -0.4149371802 0.1819193197 0.9679623419 0.0512166450 -0.2859401013 0.9981261805 -0.1780050042 0.2244547475 0.9774031690 -0.3225518891 -0.0514335891 0.9424585851 0.1212867551 -0.1528806524 0.9560554848 -0.3925002644 0.2875785606 0.9938239372 -0.0718176917 -0.2692780692 0.9845145253 -0.0143207057 0.1000821249 0.9433901790 -0.4246981397 0.1094275738 0.9422763505 0.1218782974 -0.2832989581 0.9858155611 -0.2852676484 0.3021261037 0.9923255232 -0.2446511184 -0.1567602023 0.9459341784 0.1127985105 -0.0652759190 0.9324218969 -0.4498283795 0.2607968300 0.9726266311 0.0353339508 -0.3324286094 0.9968391976 -0.1104583980 0.2076738785 0.9543695844 -0.3967235357 0.0096475015 0.9230178493 0.1636926038 -0.2331103951 0.9580865721 -0.3869132977 0.3453516507 0.9972176070 -0.1332691658 -0.2631676369 0.9636770084 0.0643073691 0.0439241179 0.9202266543 -0.4749068540 0.1894840809 0.9403248496 0.1265335748 -0.3513682395 0.9926097058 -0.2322375182 0.3086413626 0.9761396710 -0.3267171059 -0.1064638700 0.9193607474 0.1708343137 -0.1438902975 0.9255161806 -0.4644642278 0.3374900273 0.9822085901 -0.0071550901 -0.3530126297 0.9852511393 -0.0272935460 0.1645516697 0.9260568889 -0.4630361087 0.0858231619 0.9104536617 0.1879425854 -0.3159721761 0.9679187931 -0.3562325846 0.3794551862 0.9876975927 -0.2145449090 -0.2290348349 0.9347565339 0.1387279290 -0.0289990475 0.9020560089 -0.5086952695 0.2758125985 0.9479457604 0.1081536863 -0.3972875231 0.9805896779 -0.1556542185 0.2858931627 0.9495489455 -0.4091223605 -0.0375859768 0.8955571921 0.2140400805 -0.2313906545 0.9286244456 -0.4580996713 0.3960078005 0.9722554356 -0.0766679490 -0.3444411850 0.9628877874 0.0615525722 0.1006920013 0.8976826353 -0.5161169034 0.1727767105 0.9076827748 0.1930908322 -0.3889883498 0.9676498046 -0.2976676156 0.3850120125 0.9660327711 -0.3061310290 -0.1715739998 0.9025696488 0.2018583117 -0.1142020133 0.8926306430 -0.5248289244 0.3612896166 0.9584196293 0.0640735478 -0.4104001828 0.9424958131 -0.0661879804 0.2368552920 0.9159752453 -0.4829610448 0.0450212332 0.8790328141 0.2407169530 -0.3235384925 0.9410501103 -0.4288523821 0.4144240521 0.9149254012 -0.1642467062 -0.3070499370 0.9310407517 0.1460603104 0.0213906932 0.8744287804 -0.5534341254 0.2672158911 0.9159926300 0.1776592682 -0.4173492747 0.9009202445 -0.2120741456 0.3647842236 0.9443398797 -0.4005287724 -0.0964195280 0.8728604523 0.2499392357 -0.2086111467 0.8942933953 -0.5221570586 0.4086438143 0.9036531267 -0.0158147861 -0.4042129018 0.9177085222 0.0292901141 0.1671116065 0.8813463225 -0.5426793335 0.1380466726 0.8730022892 0.2499618118 -0.3975685035 0.9200755963 -0.3651421430 0.4135866196 0.8700386794 -0.2562811309 -0.2448049921 0.8930770593 0.2179666435 -0.0694498172 0.8603384800 -0.5740632993 0.3619302568 0.9255710473 0.1362889938 -0.4206719951 0.8346616280 -0.1215152752 0.3156114028 0.9128119208 -0.4870336139 -0.0083092318 0.8505604769 0.2816770937 -0.3095067566 0.9073059265 -0.4984842935 0.4174542360 0.8184809542 -0.1083474419 -0.3806990644 0.9122605696 0.1298585105 0.0823370587 0.8515634451 -0.5860470244 0.2393396737 0.8793162814 0.2404613169 -0.4166103245 0.8215457698 -0.2703044576 0.4040080501 0.8584940832 -0.3542777149 -0.1643829228 0.8564159642 0.2735157053 -0.1694830444 0.8581074290 -0.5772966223 0.4049271162 0.8422246128 0.0463309208 -0.4166406806 0.8025625459 -0.0286627934 0.2416348158 0.8722360908 -0.5564782937 0.0897312995 0.8391899120 0.2967629221 -0.3903084925 0.8785468404 -0.4341272836 0.4177026098 0.7669157495 -0.1995121984 -0.3246177860 0.8897055971 0.2198178337 -0.0133720221 0.8311068818 -0.6127553700 0.3443377987 0.8917834986 0.2070295587 -0.4212345022 0.7495401285 -0.1778732738 0.3812975075 0.8740302963 -0.4610514109 -0.0713182765 0.8269644319 0.3119633645 -0.2772825605 0.8690595517 -0.5614886198 0.4152181453 0.7495501303 -0.0512493469 -0.4056484702 0.8032722021 0.0714786533 0.1518891035 0.8348989115 -0.6078190098 0.1962273330 0.8409917601 0.2945409013 -0.4113267427 0.7681696749 -0.3309289337 0.4123359964 0.7477899629 -0.2934689075 -0.2403055511 0.8472363205 0.2858825622 -0.1178665954 0.8229656442 -0.6228632513 0.3956353557 0.8037884130 0.1124822815 -0.4202536700 0.7110588522 -0.0867262120 0.3225759847 0.8681361556 -0.5568634819 0.0310572899 0.8086442632 0.3337831085 -0.3736542946 0.8530254549 -0.5068788034 0.4184277368 0.6925617428 -0.1433785751 -0.3826884816 0.8327047223 0.1833454866 0.0516210064 0.8067845863 -0.6416846180 0.3098217656 0.8553872944 0.2721853884 -0.4193581083 0.6904739975 -0.2347898179 0.3999029706 0.7586652456 -0.3957928149 -0.1424215902 0.8096164031 0.3324930958 -0.2304829446 0.8289983206 -0.6155855091 0.4104342226 0.7039488106 0.0081302847 -0.4137136654 0.7014645161 0.0083436824 0.2291866369 0.8254391177 -0.6194894249 0.1414755901 0.8039530806 0.3392250630 -0.4027322406 0.7362292304 -0.3955477305 0.4164245532 0.6651743034 -0.2349893347 -0.3224399090 0.8423028267 0.2854300328 -0.0567031306 0.7912181572 -0.6590605865 0.3812251875 0.7850409324 0.1844563275 -0.4215094669 0.6449877929 -0.1433609119 0.3753918423 0.7981940924 -0.5117723913 -0.0358464609 0.7831337849 0.3616851313 -0.3446494976 0.8344896627 -0.5804658489 0.4171245813 0.6401259595 -0.0870065941 -0.3996528924 0.7195447998 0.1131040269 0.1242069791 0.7886795501 -0.6616051419 0.2600001321 0.8143514037 0.3271863634 -0.4152766355 0.6508191840 -0.2935038680 0.4086682128 0.6639172971 -0.3314598712 -0.2210061678 0.7994915461 0.3438420519 -0.1726886558 0.7902779525 -0.6601922903 0.4028109640 0.6762260661 0.0711850530 -0.4184942322 0.6258104623 -0.0513342143 0.3126372615 0.8199573011 -0.6189659537 0.0778820588 0.7705222010 0.3747649444 -0.3899829564 0.7214027672 -0.4657428842 0.4182812360 0.6046387476 -0.1783030234 -0.3727661815 0.7655739027 0.2332853215 0.0120569308 0.7645651576 -0.6865343058 0.3594068628 0.7809501095 0.2628593975 -0.4208033219 0.5976497579 -0.1997550501 0.3927907026 0.6886871623 -0.4387214323 -0.1098450898 0.7638922867 0.3811838956 -0.2965187977 0.8035957457 -0.6426025138 0.4137374925 0.6041684592 -0.0291612829 -0.4094418997 0.6306682047 0.0467359248 0.2039662679 0.7777293971 -0.6730304718 0.1992237934 0.7735263965 0.3718437370 -0.4085864174 0.6263310670 -0.3553846359 0.4142276814 0.5929243528 -0.2711050373 -0.3058832843 0.7938597208 0.3439311851 -0.1066809333 0.7553038833 -0.6956883592 0.3914774200 0.6630807625 0.1394308107 -0.4209838319 0.5697039394 -0.1087044723 0.3629466802 0.7407143504 -0.5627102512 0.0072912119 0.7423322706 0.4018673111 -0.3713701865 0.7208125952 -0.5429719588 0.4181710081 0.5605437600 -0.1221708547 -0.3915471773 0.6602515739 0.1569379950 0.0874110883 0.7441697497 -0.7060139971 0.3231868317 0.7778276894 0.3411307530 -0.4180832460 0.5646809221 -0.2571635851 0.4037815446 0.6037102651 -0.3709557801 -0.1906677400 0.7518023792 0.3928017281 -0.2332854564 0.7623725052 -0.6888861620 0.4079140423 0.5813605369 0.0314785230 -0.4158516323 0.5635496335 -0.0150297530 0.2902643327 0.7721347241 -0.6743491574 0.1307729637 0.7365665502 0.4072662402 -0.3985216840 0.6145072045 -0.4219214833 0.4173771408 0.5396428651 -0.2134043093 -0.3582379745 0.7162401038 0.2852372832 -0.0342543955 0.7256614968 -0.7228704730 0.3749859596 0.6625258983 0.2144316920 -0.4214712514 0.5283619102 -0.1650659284 0.3836481829 0.6383326110 -0.4840894286 -0.0693848236 0.7204676298 0.4213256471 -0.3436366823 0.7307986695 -0.6272827186 0.4160915556 0.5292548332 -0.0653558588 -0.4038961019 0.5786706447 0.0869173460 0.1692008542 0.7308529415 -0.7180616728 0.2624694597 0.7473404195 0.3964045575 -0.4130664955 0.5433684203 -0.3168931276 0.4111133811 0.5389950518 -0.3082081918 -0.2782253641 0.7460696963 0.3955801995 -0.1623312701 0.7236203537 -0.7247909105 0.3989987708 0.5697105868 0.0963532170 -0.4196952249 0.5127676058 -0.0736367417 0.3463672190 0.6986261573 -0.6162915246 0.0564710124 0.7051170716 0.4344441226 -0.3838314566 0.6138751440 -0.4946951934 0.4184668544 0.4998872992 -0.1570458557 -0.3812714552 0.6168434260 0.2035118294 0.0437364219 0.7023622267 -0.7426131266 0.3510052819 0.672955179
[...]
      <PointData Scalars="material ID">
        <DataArray type="Int32" Name="material ID" format="ascii">
 0 0 0 0 0 0 0 0 0 0 0 0 0 0 0 0 0 0 0 0 0 0 0 0 0 0 0 0 0 0 0 0 0 0 0 0 0 0 0 0 0 0 0 0 0 0 0 0 0 0 0 0 0 0 0 0 0 0 0 0 0 0 0 0 0 0 0 0 0 0 0 0 0 0 0 0 0 0 0 0 0 0 0 0 0 0 0 0 0 0 0 0 0 0 0 0 0 0 0 0 0 0 0 0 0 0 0 0 0 0 0 0 0 0 0 0 0 0 0 0 0 0 0 0 0 0 0 0 0 0 0 0 0 0 0 0 0 0 0 0 0 0 0 0 0 0 0 0 0 0 0 0 0 0 0 0 0 0 0 0 0 0 0 0 0 0 0 0 0 0 0 0 0 0 0 0 0 0 0 0 0 0 0 0 0 0 0 0 0 0 0 0 0 0 0 0 0 0 0 0 0 0 0 0 0 0 0 0 0 0 0 0 0 0 0 0 0 0 0 0 0 0 0 0 0 0 0 0 0 0 0 0 0 0 0 0 0 0 0 0 0 0 0 0 0 0 0 0 0 0 0 0 0 0 0 0 0 0 0 0 0 0 0 0 0 0 0 0 0 0 0 0 0 0 0 0 0 0 0 0 0 0 0 0 0 0 0 0 0 0 0 0 0 0 0 0 0 0 0 0 0 0 0 0 0 0 0 0 0 0 0 0 0 0 0 0 0 0 0 0 0 0 0 0 0 0 0 0 0 0 0 0 0 0 0 0 0 0 0 0 0 0 0 0 0 0 0 0 0 0 0 0 0 0 0 0 0 0 0 0 0 0 0 0 0 0 0 0 0 0 0 0 0 0 0 0 0 0 0 0 0 0 0 0 0 0 0 0 0 0 0 0 0 0 0 0 0 0 0 0 0 0 0 0 0 0 0 0 0 0 0 0 0 0 0 0 0 0 0 0 0 0 0 0 0 0 0 0 0 0 0 0 0 0 0 0 0 0 0 0 0 0 0 0 0 0 0 0 0 0 0 0 0 0 0 0 0 0 0 0 0 0 0 0 0 0 0 0 0 0 0 0 0 0 0 0 0 0 0 0 0 0 0 0 0 0 0 0 0 0 0 0 0 0 0 0 0 0 0 0 0 0 0 0 0 0 0 0 0 0 0 0 0 0 0 0 0 0 0 0 0 0 0 0 0 0 0 0 0 0 0 0 0 0 0 0 0 0 0 0 0 0 0 0 0 0 0 0 0 0 0 0 0 0 0 0 0 0 0 0 0 0 0 0 0 0 0 0 0 0 0 0 0 0 0 0 0 0 0 0 0 0 0 0 0 0 0 0 0 0 0 0 0 0 0 0 0 0 0 0 0 0 0 0 0 0 0 0 0 0 0 0 0 0 0 0 0 0 0 0 0 0 0 0 0 0 0 0 0 0 0 0 0 0 0 0 0 0 0 0 0 0 0 0 0 0 0 0 0 0 0 0 0 0 0 0 0 0 0 0 0 0 0 0 0 0 0 0 0 0 0 0 0 0 0 0 0 0 0 0 0 0 0 0 0 0 0 0 0 0 0 0 0 0 0 0 0 0 0 0 0 0 0 0 0 0 0 0 0 0 0 0 0 0 0 0 0 0 0 0 0 0 0 0 0 0 0 0 0 0 0 0 0 0 0 0 0 0 0 0 0 0 0 0 0 0 0 0 0 0 0 0 0 0 0 0 0 0 0 0 0 0 0 0 0 0 0 0 0 0 0 0 0 0 0 0 0 0 0 0 0 0 0 0 0 0 0 0 0 0 0 0 0 0 0 0 0 0 0 0 0 0 0 0 0 0 0 0 0 0 0 0 0 0 0 0 0 0 0 0 0 0 0 0 0 0 0 0 0 0 0 0 0 0 0 0 0 0 0 0 0 0 0 0 0 0 0 0 0 0 0 0 0 0 0 0 0 0 0 0 0 0 0 0 0 0 0 0 0 0 0 0 0 0 0 0 0 0 0 0 0 0 0 0 0 0 0 0 0 0 0 0 0 0 0 0 0 0 0 0 0 0 0 0 0 0 0 0 0 0 0 0 0 0 0 0 0 0 0 0 0 0 0 0 0 0 0 0 0 0 0 0 0 0 0 0 0 0 0 0 0 0 0 0 0 0 0 0 0 0 0 0 0 0 0 0 0 0 0 0 0 0 0 0 0 0 0 0 0 0 0 0 0 0 0 0 0 0 0 0 0 0 0 0 0 0 0 0 0 0 0 0 0 0 0 0 0 0 0 0 0 0 0 0 0 0 0 0 0 0 0 0 0 0 0 0 0 0 0 0 0 0 0 0 0 0 0 0 0 0 0 0 0 0 0 0 0 0 0 0 0 0 0 0 0 0 0 0 0 0 0 0 0 0 0 0 0 0 0 0 0 0 0 0 0 0 0 0 0 0 0 0 0 0 0 0 0 0 0 0 0 0 0 0 0 0 0 0 0 0 0 0 0 0 0 0 0 0 0 0 0 0 0 0 0 0 0 0 0 0 0 0 0 0 0 0 0 0 0 0 0 0 0 0 0 0 0 0 0 0 0 0 0 0 0 0 0 0 0 0 0 0 0 0 0 0 0 0 0 0 0 0 0 0 0 0 0 0 0 0 0 0 0 0 0 0 0 0 0 0 0 0 0 0 0 0 0 0 0 0 0 0 0 0 0 0 0 0 0 0 0 0 0 0 0 0 0 0 0 0 0 0 0 0 0 0 0 0 0 0 0 0 0 0 0 0 0 0 0 0 0 0 0 0 0 0 0 0 0 0 0 0 0 0 0 0 0 0 0 0 0 0 0 0 0 0 0 0 0 0 0 0 0 0 0 0 0 0 0 0 0 0 0 0 0 0 0 0 0 0 0 0 0 0 0 0 0 0 0 0 0 0 0 0 0 0 0 0 0 0 0 0 0 0 0 0 0 0 0 0 0 0 0 0 0 0 0 0 0 0 0 0 0 0 0 0 0 0 0 0 0 0 0 0 0 0 0 0 0 0 0 0 0 0 0 0 0 0 0 0 0 0 0 0 0 0 0 0 0 0 0 0 0 0 0 0 0 0 0 0 0 0 0 0 0 0 0 0 0 0 0 0 0 0 0 0 0 0 0 0 0 0 0 0 0 0 0 0 0 0 0 0 0 0 0 0 0 0 0 0 0 0 0 0 0 0 0 0 0 0 0 0 0 0 0 0 0 0 0 0 0 0 0 0 0 0 0 0 0 0 0 0 0 0 0 0 0 0 0 0 0 0 0 0 0 0 0 0 0 0 0 0 0 0 0 0 0 0 0 0 0 0 0 0 0 0 0 0 0 0 0 0 0 0 0 0 0 0 0 0 0 0 0 0 0 0 0 0 0 0 0 0 0 0 0 0 0 0 0 0 0 0 0 0 0 0 0 0 0 0 0 0 0 0 0 0 0 0 0 0 0 0 0 0 0 0 0 0 0 0 0 0 0 0 0 0 0 0 0 0 0 0 0 0 0 0 0 0 0 0 0 0 0 0 0 0 0 0 0 0 0 0 0 0 0 0 0 0 0 0 0 0 0 0 0 0 0 0 0 0 0 0 0 0 0 0 0 0 0 0 0 0 0 0 0 0 0 0 0 0 0 0 0 0 0 0 0 0 0 0 0 0 0 0 0 0 0 0 0 0 0 0 0 0 0 0 0 0 0 0 0 0 0 0 0 0 0 0 0 0 0 0 0 0 0 0 0 0 0 0 0 0 0 0 0 0 0 0 0 0 0 0 0 0 0 0 0 0 0 0 0 0 0 0 0 0 0 0 0 0 0 0 0 0 0 0 0 0 0 0 0 0 0 0 0 0 0 0 0 0 0 0 0 0 0 0 0 0 0 0 0 0 0 0 0 0 0 0 0 0 0 0 0 0 0 0 0 0 0 0 0 0 0 0 0 0 0 0 0 0 0 0 0 0 0 0 0 0 0 0 0 0 0 0 0 0 0 0 0 0 0 0 0 0 0 0 0 0 0 0 0 0 0 0 0 0 0 0 0 0 0 0 0 0 0 0 0 0 0 0 0 0 0 0 0 0 0 0 0 0 0 0 0 0 0 0 0 0 0 0 0 0 0 0 0 0 0 0 0 0 0 0 0 0 0 0 0 0 0 0 0 0 0 0 0 0 0 0 0 0 0 0 0 0 0 0 0 0 0 0 0 0 0 0 0 0 0 0 0 0 0 0 0 0 0 0 0 0 0 0 0 0 0 0 0 0 0 0 0 0 0 0 0 0 0 0 0 0 0 0 0 0 0 0 0 0 0 0 0 0 0 0 0 0 0 0 0 0 0 0 0 0 0 0 0 0 0 0 0 0 0 0 0 0 0 0 0 0 0 0 0 0 0 0 0 0 0 0 0 0 0 0 0 0 0 0 0 0 0 0 0 0 0 0 0 0 0 0 0 0 0 0 0 0 0 0 0 0 0 0 0 0 0 0 0 0 0 0 0 0 0 0 0 0 0 0 0 0 0 0 0 0 0 0 0 0 0 0 0 0 0 0 0 0
        </DataArray>
        <DataArray type="Float32" Name="velocity" NumberOfComponents="3" format="ascii">
 -0.0040355955 -0.0036647326 -1.7405526773 -0.0039508820 -0.0034702472 -1.7403817147 -0.0041968938 -0.0040379290 -1.7404761747 -0.0038833138 -0.0033127279 -1.7405789507 -0.0040739049 -0.0037553096 -1.7402643513 -0.0041647833 -0.0039623376 -1.7406719700 -0.0037840798 -0.0030850079 -1.7403645559 -0.0042842545 -0.0042409724 -1.7403071393 -0.0039322742 -0.0034245832 -1.7407540232 -0.0039146937 -0.0033881270 -1.7401749269 -0.0043350336 -0.0043564991 -1.7405560497 -0.0037056595 -0.0029028499 -1.7405015149 -0.0042186457 -0.0040905867 -1.7401414643 -0.0041169591 -0.0038505906 -1.7408472287 -0.0037172405 -0.0029319174 -1.7401796611 -0.0044317903 -0.0045817672 -1.7403149932 -0.0037660759 -0.0030406831 -1.7407446567 -0.0040181431 -0.0036280565 -1.7400453686 -0.0043465403 -0.0043818803 -1.7407234641 -0.0035889643 -0.0026346315 -1.7403091121 -0.0043915446 -0.0044903900 -1.7400919668 -0.0039707499 -0.0035120259 -1.7409555385 -0.0037563433 -0.0030234096 -1.7400191607 -0.0045132213 -0.0047691379 -1.7404206896 -0.0035982827 -0.0026541674 -1.7405864694 -0.0041960807 -0.0040397512 -1.7399609885 -0.0042595010 -0.0041793088 -1.7409301814 -0.0035458316 -0.0025365272 -1.7400940442 -0.0045429633 -0.0048400912 -1.7401087779 -0.0037725005 -0.0030542126 -1.7409274798 -0.0038888527 -0.0033303700 -1.7399043858 -0.0045149731 -0.0047717508 -1.7406203672 -0.0034707963 -0.0023614377 -1.7403356634 -0.0044019196 -0.0045156602 -1.7399108648 -0.0040860968 -0.0037775118 -1.7410947211 -0.0035877268 -0.0026346094 -1.7399141831 -0.0046393656 -0.0050620638 -1.7402125623 -0.0035705580 -0.0025890226 -1.7407385580 -0.0040967857 -0.0038113248 -1.7398253315 -0.0044279694 -0.0045688373 -1.7408861398 -0.0034094287 -0.0022215815 -1.7400682133 -0.0045880477 -0.0049456948 -1.7399075866 -0.0038531692 -0.0032392131 -1.7411179272 -0.0037211437 -0.0029437240 -1.7397914216 -0.0046616864 -0.0051121364 -1.7404206581 -0.0034080690 -0.0022157967 -1.7404361904 -0.0043425949 -0.0043796420 -1.7397661579 -0.0042495462 -0.0041547789 -1.7411433530 -0.0034289541 -0.0022682941 -1.7398450581 -0.0047191430 -0.0052480202 -1.7399832831 -0.0036070626 -0.0026718819 -1.7409441823 -0.0039418432 -0.0034541765 -1.7397118885 -0.0045977062 -0.0049621326 -1.7407256023 -0.0033118486 -0.0019958761 -1.7401052936 -0.0045752672 -0.0049174125 -1.7397343381 -0.0039941670 -0.0035638788 -1.7412684149 -0.0035404632 -0.0025269908 -1.7396950229 -0.0047764608 -0.0053791063 -1.7401691187 -0.0033973597 -0.0021898105 -1.7406094633 -0.0042210797 -0.0040997687 -1.7396460384 -0.0044375018 -0.0045895208 -1.7410725308 -0.0032954085 -0.0019599467 -1.7398196085 -0.0047525973 -0.0053268675 -1.7397663855 -0.0037046711 -0.0028957582 -1.7411708545 -0.0037509097 -0.0030138437 -1.7396032756 -0.0047493307 -0.0053142185 -1.7404766769 -0.0032560231 -0.0018661258 -1.7402134313 -0.0045050615 -0.0047562075 -1.7395963894 -0.0041804199 -0.0039939788 -1.7412961885 -0.0033692996 -0.0021320907 -1.7396200650 -0.0048536568 -0.0055593450 -1.7399055838 -0.0034396404 -0.0022857791 -1.7408478433 -0.0040452342 -0.0036947275 -1.7394770290 -0.0046260640 -0.0050265425 -1.7408794585 -0.0031959218 -0.0017298743 -1.7398514535 -0.0047380511 -0.0052945848 -1.7395821692 -0.0038639381 -0.0032631271 -1.7412523282 -0.0035467685 -0.0025429269 -1.7395044362 -0.0048706066 -0.0055965338 -1.7401798629 -0.0032441697 -0.0018374138 -1.7403981811 -0.0043707355 -0.0044470879 -1.7394274980 -0.0043901201 -0.0044791816 -1.7411941364 -0.0032239768 -0.0017966303 -1.7395813031 -0.0048905048 -0.0056462374 -1.7396602239 -0.0035409129 -0.0025179416 -1.7410993876 -0.0038394115 -0.0032208821 -1.7392451036 -0.0047948634 -0.0054186050 -1.7405890883 -0.0031344649 -0.0015871585 -1.7399533581 -0.0046711758 -0.0051411281 -1.7394366646 -0.0040638596 -0.0037268838 -1.7409907878 -0.0033524212 -0.0020945234 -1.7394214445 -0.0049558123 -0.0057955759 -1.7398747646 -0.0032796996 -0.0019176263 -1.7406588139 -0.0041733234 -0.0039940146 -1.7390088660 -0.0046062684 -0.0049797072 -1.7410327972 -0.0031132114 -0.0015406220 -1.7395962511 -0.0048844041 -0.0056336352 -1.7394525026 -0.0037232383 -0.0029404717 -1.7409178013 -0.0036200196 -0.0027148632 -1.7391279522 -0.0049312596 -0.0057361879 -1.7402456370 -0.0031131620 -0.0015366395 -1.7401347620 -0.0045247077 -0.0048047616 -1.7391557340 -0.0042742054 -0.0042145674 -1.7407510225 -0.0031868752 -0.0017124824 -1.7393630452 -0.0050028941 -0.0059063819 -1.7395917563 -0.0033747421 -0.0021352776 -1.7409267997 -0.0039645307 -0.0035142182 -1.7386501556 -0.0048041519 -0.0054388871 -1.7407529574 -0.0030400518 -0.0013709986 -1.7396801737 -0.0048303239 -0.0055098608 -1.7392900442 -0.0039340630 -0.0034306363 -1.7404867002 -0.0033892714 -0.0021815865 -1.7391530148 -0.0050302348 -0.0059673802 -1.7398933897 -0.0031350559 -0.0015853116 -1.7404005387 -0.0043055697 -0.0043025517 -1.7385899733 -0.0044987751 -0.0047339871 -1.7406678813 -0.0030588668 -0.0014168154 -1.7393532381 -0.0050102732 -0.0059251627 -1.7393505035 -0.0035796921 -0.0026112368 -1.7405837810 -0.0037510402 -0.0030221474 -1.7384893158 -0.0049627581 -0.0058080777 -1.7403682864 -0.0030052644 -0.0012894469 -1.7398447842 -0.0046822442 -0.0051701787 -1.7389523336 -0.0041423042 -0.0039136937 -1.7402140375 -0.0031825738 -0.0017039883 -1.7391621261 -0.0050911546 -0.0061104786 -1.7395654817 -0.0032119386 -0.0017607291 -1.7407074179 -0.0040923880 -0.0038128559 -1.7381978258 -0.0047439216 -0.0053001310 -1.7406981165 -0.0029702000 -0.0012115566 -1.7394106293 -0.0049741972 -0.0058431757 -1.7391612930 -0.0038019702 -0.0031281232 -1.7401163227 -0.0035213728 -0.0024913393 -1.7385182873 -0.0050798953 -0.0060815992 -1.7399646090 -0.0030103903 -0.0012994663 -1.7400985855 -0.0044437354 -0.0046237002 -1.7383192635 -0.0043574833 -0.0044116376 -1.7401003856 -0.0030303515 -0.0013525370 -1.7391304651 -0.0051142034 -0.0061657596 -1.7392826798 -0.0034273375 -0.0022608687 -1.7403588051 -0.0038827039 -0.0033298719 -1.7379961717 -0.0049635740 -0.0058087851 -1.7405322042 -0.0029198535 -0.0010942520 -1.7395483580 -0.0048486828 -0.0055553983 -1.7388552987 -0.0040123340 -0.0036162424 -1.7398217154 -0.0032652858 -0.0018982038 -1.7387269034 -0.0051571045 -0.0062626974 -1.7395856679 -0.0030619010 -0.0014160517 -1.7404353984 -0.0042219557 -0.0041144129 -1.7378891512 -0.0045923472 -0.0049540339 -1.7401294956 -0.0029228283 -0.0011039456 -1.7391556271 -0.0050976109 -0.0061290519 -1.7390563547 -0.0036650289 -0.0028135627 -1.7398637194 -0.0036644985 -0.0028260102 -1.7379603333 -0.0051065061 -0.0061421646 -1.7400917693 -0.0029072949 -0.0010635971 -1.7397767501 -0.0045914154 -0.0049659590 -1.7381697302 -0.0042219964 -0.0041017002 -1.7396720011 -0.0030313082 -0.0013562881 -1.7389159446 -0.0051967007 -0.0063565534 -1.7392547383 -0.0032619527 -0.0018797318 -1.7402264160 -0.0040115097 -0.0036299871 -1.7376431958 -0.0048590031 -0.0055689874 -1.7402827326 -0.0028554386 -0.0009475077 -1.7392597368 -0.0050171528 -0.0059448416 -1.7388236056 -0.0038821783 -0.0033175614 -1.7395408811 -0.0034245235 -0.0022706770 -1.7380883857 -0.0052024949 -0.0063670559 -1.7396562128 -0.0029350775 -0.0011254347 -1.7401036902 -0.0043559658 -0.0044254582 -1.7376883903 -0.0044432355 -0.0046130037 -1.7396475510 -0.0028966321 -0.0010451048 -1.7389217403 -0.0051992808 -0.0063644610 -1.7389837381 -0.0035199530 -0.0024795752 -1.7396993385 -0.0038001262 -0.0031423087 -1.7375484950 -0.0051052152 -0.0061380159 -1.7402541203 -0.0028252317 -0.0008763270 -1.7394537526 -0.0047521671 -0.0053376973 -1.7381204091 -0.0040909863 -0.0038013016 -1.7393554952 -0.0031496404 -0.0016334203 -1.7383939496 -0.0052592738 -0.0065009976 -1.7392712145 -0.0030820642 -0.0014646510 -1.7401546983 -0.0041400724 -0.0039287954 -1.7373939818 -0.0046896531 -0.0051816201 -1.7397423851 -0.0028104003 -0.0008454073 -1.7389880611 -0.0051591572 -0.0062732969 -1.7387702958 -0.0037489149 -0.0030111079 -1.7393425820 -0.0035752777 -0.0026225079 -1.7375949971 -0.0052285190 -0.0064262821 -1.7397811221 -0.0028319811 -0.0008898066 -1.7397479742 -0.0044974888 -0.0047532403 -1.7375739777 -0.0043036392 -0.0042931054 -1.7392841262 -0.0028963349 -0.0010460309 -1.7386972289 -0.0052801165 -0.0065514592 -1.7389498102 -0.0033632115 -0.0021181430 -1.7396036905 -0.0039307832 -0.0034463418 -1.7372454892 -0.0049748845 -0.0058391007 -1.7399496168 -0.0027626067 -0.0007338806 -1.7391424771 -0.0049292859 -0.0057466102 -1.7381599712 -0.0039615181 -0.0035038716 -1.7391215930 -0.0033230114 -0.0020382771 -1.7377927951 -0.0053036154 -0.0066029746 -1.7393359722 -0.0029024936 -0.0010505055 -1.7400550809 -0.0042711985 -0.0042329455 -1.7372255260 -0.0045328293 -0.0048223641 -1.7393173197 -0.0027835550 -0.0007851786 -1.7387386288 -0.0052646318 -0.0065175017 -1.7386968917 -0.0036094589 -0.0026898871 -1.7392083716 -0.0037158344 -0.0029498960 -1.7372246498 -0.0052314513 -0.0064318477 -1.7399494059 -0.0027501290 -0.0007032385 -1.7393951371 -0.0046498994 -0.0051056383 -1.7375344096 -0.0041704220 -0.0039873103 -1.7390090231 -0.0030296733 -0.0013578992 -1.7381658620 -0.0053419716 -0.0066942978 -1.7389588556 -0.0031911843 -0.0017210019 -1.7395629264 -0.0040593697 -0.0037449965 -1.7370253091 -0.0047928771 -0.0054221656 -1.7394545989 -0.0027176178 -0.0006320386 -1.7388507611 -0.0051228212 -0.0061928970 -1.7382764933 -0.0038306947 -0.0032028560 -1.7389510307 -0.0034822630 -0.0024095042 -1.7373321933 -0.0053310279 -0.0066654650 -1.7394529982 -0.0027752183 -0.0007586224 -1.7397542776 -0.0044078399 -0.0045493562 -1.7371241020 -0.0043878485 -0.0044897579 -1.7389912242 -0.0027770880 -0.0007718987 -1.7385074350 -0.0053463426 -0.0067065839 -1.7386542896 -0.0034604737 -0.0023462776 -1.7391261935 -0.0038494156 -0.0032605045 -1.7369467518 -0.0050970823 -0.0061232890 -1.7396885751 -0.0026872771 -0.0005604532 -1.7390580783 -0.0048167990 -0.0054910078 -1.7375647532 -0.0040405062 -0.0036886616 -1.7388008666 -0.0032154769 -0.0017913235 -1.7375863529 -0.0053868684 -0.0067976248 -1.7390142736 -0.0030010476 -0.0012817278 -1.7395631880 -0.0041887115 -0.0040449211 -1.7368712219 -0.0046270460 -0.0050418477 -1.7390646652 -0.0026888256 -0.0005674454 -1.7385827294 -0.0053012124 -0.0066042236 -1.7383892738 -0.0036955566 -0.0028915088 -1.7388310557 -0.0036289841 -0.0027509897 -1.7369819242 -0.0053407172 -0.0066866306 -1.7396227697 -0.0026904518 -0.0005655339 -1.7393718463 -0.0045532014 -0.0048854852 -1.7370822377 -0.0042512297 -0.0041759322 -1.7387400583 -0.0029031742 -0.0010667307 -1.7380152631 -0.0054090381 -0.0068514344 -1.7386535530 -0.0032983684 -0.0019720447 -1.7390874029 -0.0039790833 -0.0035615574 -1.7367404205 -0.0049028897 -0.0056779373 -1.7392304570 -0.0026411832 -0.0004562216 -1.7387436269 -0.0050015219 -0.0059170587 -1.7376640994 -0.0039109768 -0.0033905293 -1.7386450961 -0.0033845149 -0.0021850621 -1.7371393778 -0.0054164558 -0.0068652239 -1.7391195696 -0.0027968341 -0.0008098802 -1.7395706758 -0.0043216789 -0.0043528225 -1.7367727723 -0.0044753213 -0.0046934987 -1.7387611669 -0.0026760430 -0.0005396655 -1.7383388795 -0.0053986879 -0.0068295661 -1.7383690653 -0.0035529473 -0.0025625997 -1.7387530007 -0.0037666455 -0.0030709415 -1.7367155942 -0.0052259810 -0.0064226373 -1.7394722314 -0.0026260984 -0.0004194873 -1.7390058675 -0.0047107804 -0.0052494334 -1.7370969985 -0.0041197439 -0.0038735502 -1.7385466588 -0.0031010664 -0.0015280285 -1.7374433712 -0.0054553136 -0.0069580288 -1.7386975326 -0.0031195927 -0.0015590434 -1.7390841220 -0.0041077234 -0.0038598227 -1.7365916758 -0.0047267007 -0.0052735220 -1.7388638372 -0.0026099937 -0.0003862392 -1.7384547992 -0.0052052763 -0.0063865888 -1.7378315939 -0.0037789431 -0.0030863070 -1.7385316774 -0.0035387345 -0.0025438184 -1.7367964767 -0.0054315152 -0.0068988716 -1.7392788199 -0.0026460841 -0.0004630064 -1.7393753194 -0.0044613209 -0.0046757872 -1.7367240200 -0.0043340620 -0.0043688488 -1.7385243691 -0.0027709245 -0.0007618776 -1.7379201702 -0.0054634262 -0.0069792133 -1.7383575713 -0.0033994324 -0.0022082394 -1.7387105900 -0.0038984870 -0.0033769781 -1.7365146432 -0.0050203003 -0.0059505050 -1.7390474959 -0.0025782834 -0.0003114606 -1.7386661888 -0.0048841890 -0.0056495429 -1.7371688160 -0.0039904007 -0.0035757906 -1.7383988880 -0.0032811208 -0.0019472078 -1.7369978767 -0.0054872767 -0.0070312162 -1.7387889572 -0.0029217180 -0.0011017394 -1.7391056695 -0.0042381737 -0.0041619219 -1.7364914216 -0.0045668261 -0.0049062410 -1.7385747449 -0.0025925830 -0.0003479020 -1.7381921560 -0.0054097744 -0.0068575974 -1.7380324344 -0.0036413931 -0.0027690867 -1.7384535837 -0.0036817104 -0.0028760248 -1.7365334219 -0.0053591316 -0.0067316724 -1.7392748875 -0.0025764719 -0.0003049826 -1.7389853880 -0.0046109633 -0.0050215164 -1.7367225280 -0.0041998631 -0.0040601371 -1.7383395702 -0.0029792632 -0.0012473092 -1.7373484029 -0.0055115473 -0.0070901604 -1.7383891691 -0.0032313789 -0.0018200737 -1.7386983825 -0.0040275032 -0.0036761098 -1.7363662465 -0.0048326164 -0.0055194065 -1.7386984966 -0.0025446449 -0.0002359828 -1.7383547659 -0.0050764040 -0.0060926738 -1.7373000666 -0.0038603206 -0.0032760628 -1.7382881180 -0.0034442218 -0.0023264902 -1.7366539116 -0.0055063289 -0.0070742081 -1.7389315701 -0.0027074565 -0.0006065625 -1.7391292368 -0.0043733650 -0.0044746648 -1.7364342032 -0.0044196255 -0.0045678014 -1.7383467849 -0.0026379737 -0.0004551554 -1.7378598164 -0.0055072880 -0.0070826056 -1.7380710071 -0.0034950738 -0.0024313896 -1.7384056897 -0.0038168665 -0.0031897181 -1.7363325971 -0.0051453137 -0.0062404564 -1.7388897199 -0.0025265437 -0.0001922739 -1.7386178222 -0.0047741930 -0.0053982933 -1.7367687297 -0.0040696080 -0.0037602404 -1.7381960094 -0.0031712283 -0.0016940538 -1.7368962072 -0.0055458351 -0.0071688238 -1.7384659487 -0.0030454613 -0.0013904674 -1.7387097065 -0.0041565526 -0.0039750025 -1.7362617720 -0.0046631861 -0.0051299773 -1.7384193869 -0.0025235412 -0.0001892646 -1.7380710958 -0.0052875747 -0.0065791624 -1.7374919322 -0.0037265887 -0.0029676766 -1.7382081586 -0.0035938240 -0.0026740225 -1.7363884659 -0.0054859307 -0.0070261650 -1.7390592445 -0.0025401734 -0.0002211114 -1.7389868852 -0.0045164481 -0.0048053495 -1.7364174750 -0.0042815263 -0.0042500430 -1.7381669708 -0.0028501407 -0.0009494084 -1.7372912306 -0.0055577379 -0.0071990203 -1.7380904155 -0.0033364540 -0.0020650885 -1.7383837543 -0.0039473484 -0.0034922553 -1.7361815060 -0.0049455355 -0.0057812991 -1.7385570538 -0.0024905536 -0.0001115383 -1.7382820247 -0.0049545223 -0.0058142140 -1.7368652861 -0.0039403716 -0.0034624574 -1.7380858340 -0.0033445610 -0.0020970263 -1.7365450396 -0.0055681839 -0.0072195604 -1.7385906460 -0.0028402097 -0.0009161066 -1.7387331945 -0.0042884965 -0.0042803062 -1.7361957637 -0.0045086801 -0.0047746195 -1.7381970816 -0.0025243976 -0.0001932225 -1.7377955593 -0.0055025340 -0.0070741121 -1.7377244274 -0.0035861159 -0.0026435286 -1.7381544489 -0.0037334971 -0.0029981765 -1.7361841436 -0.0052773486 -0.0065465438 -1.7387438817 -0.0024839967 -0.0000941201 -1.7385980057 -0.0046708642 -0.0051619262 -1.7364411800 -0.0041492465 -0.0039454542 -1.7380254305 -0.0030541514 -0.0014240694 -1.7368268809 -0.0055942307 -0.0072828815 -1.7381527830 -0.0031619226 -0.0016618737 -1.7383831228 -0.0040760885 -0.0037904734 -1.7360715002 -0.0047652519 -0.0053667367 -1.7382861161 -0.0024663530 -0.0000578239 -1.7379763008 -0.0051542558 -0.0062745768 -1.7370157479 -0.0038092821 -0.0031601948 -1.7380032893 -0.0035021641 -0.0024630909 -1.7362729199 -0.0055771581 -0.0072390618 -1.7387621144 -0.0026202813 -0.0004079175 -1.7387456272 -0.0044263394 -0.0045989831 -1.7361653151 -0.0043654315 -0.0044449438 -1.7380201235 -0.0027148440 -0.0006370280 -1.7372640776 -0.0055955953 -0.0072885625 -1.7378008177 -0.0034355416 -0.0022958810 -1.7381233310 -0.0038665648 -0.0033067220 -1.7360282937 -0.0050659570 -0.0060604196 -1.7384302088 -0.0024457650 -0.000008