<?xml version="1.0"?>
<VTKFile type="UnstructuredGrid" version="0.1" byte_order="LittleEndian">
  <UnstructuredGrid>
    <FieldData>
      <DataArray type="Float32" Name="TIME"  NumberOfTuples="1" format="ascii"> 0.6000000000 </DataArray>
      <DataArray type="Int32"   Name="STEP"  NumberOfTuples="1" format="ascii"> 60000 </DataArray>
    </FieldData>
    <Piece NumberOfPoints="87" NumberOfCells="87">
      <Points>
        <DataArray type="Float32" NumberOfComponents="3" format="ascii">
 0.0229581710 0.2093643477 -1.0001488612 -0.0442313134 0.2037646232 -1.0006397613 0.0646715361 0.2004984017 -1.0009145997 -0.0026812114 0.1941017945 -1.0014535122 -0.0702170033 0.1889608458 -1.0018080458 0.0390137932 0.1849522952 -1.0021861814 -0.0284822852 0.1790820403 -1.0026374258 0.0807767021 0.1756581314 -1.0014731228 0.0132689022 0.1696801105 -1.0033281552 -0.0544744030 0.1642578446 -1.0037045698 0.0552206129 0.1607105822 -1.0039415412 -0.0125901953 0.1546378797 -1.0043540680 -0.0801130252 0.1485147040 -1.0017291230 0.0293562351 0.1454417623 -1.0049329755 -0.0385938300 0.1397793626 -1.0052717569 0.0711945163 0.1358961011 -1.0033266176 0.0034241345 0.1303869135 -1.0058029943 -0.0645125422 0.1245514780 -1.0044197848 0.0455593369 0.1213312127 -1.0062477709 -0.0226052450 0.1155027545 -1.0065682683 0.0866816897 0.1108510390 -1.0004031809 0.0195420350 0.1062834627 -1.0069949180 -0.0486824389 0.1005719195 -1.0065369270 0.0614962129 0.0967386439 -1.0048673540 -0.0065285425 0.0913846462 -1.0076090601 -0.0741854939 0.0850213946 -1.0028276327 0.0357323696 0.0822491594 -1.0077753541 -0.0326735461 0.0765763107 -1.0080188412 0.0771431356 0.0723078655 -1.0022780290 0.0096187111 0.0673794963 -1.0084021981 -0.0584916328 0.0613858295 -1.0053068043 0.0517128539 0.0579892183 -1.0061829478 -0.0165446208 0.0525751014 -1.0087712206 -0.0837578624 0.0462638552 -1.0010173341 0.0257955950 0.0434002288 -1.0085594042 -0.0425886534 0.0376525487 -1.0072101458 0.0675015297 0.0339698033 -1.0039440729 -0.0003692222 0.0286332396 -1.0091749529 -0.0682189890 0.0227663886 -1.0038406188 0.0418581975 0.0194310490 -1.0072750601 -0.0265311365 0.0138353586 -1.0085186733 0.0830511657 0.0102168892 -1.0011427156 0.0158172074 0.0047215075 -1.0090491027 -0.0524390218 -0.0009146463 -1.0061024254 0.0577685386 -0.0043748765 -1.0053951722 -0.0103764029 -0.0100485384 -1.0092191057 -0.0778541748 -0.0154949604 -1.0021598780 0.0319453308 -0.0191437333 -1.0081396093 -0.0364704024 -0.0247655214 -1.0077805085 0.0734719124 -0.0280017531 -1.0029385747 0.0058136612 -0.0339637434 -1.0091052354 -0.0622172663 -0.0393185379 -1.0047716384 0.0479564222 -0.0429320793 -1.0066258831 -0.0203669659 -0.0487650833 -1.0088192082 -0.0873855658 -0.0536050166 -1.0002707658 0.0219805696 -0.0579209293 -1.0086387412 -0.0463588519 -0.0633998019 -1.0068128208 0.0637939898 -0.0666272041 -1.0045232026 -0.0041817555 -0.0727195827 -1.0082457102 -0.0719108281 -0.0777650631 -1.0032228132 0.0380760558 -0.0819053576 -1.0076108204 -0.0302948475 -0.0876146345 -1.0077454062 0.0794045943 -0.0902165929 -1.0018523793 0.0119475711 -0.0967498141 -1.0073973387 -0.0561829506 -0.1022758845 -1.0056176230 0.0540284089 -0.1058721978 -1.0058839472 -0.0141152236 -0.1116386791 -1.0067500194 -0.0815076996 -0.1164671648 -1.0014616825 0.0280028315 -0.1209052474 -1.0062995544 -0.0401142577 -0.1266859659 -1.0059993991 0.0697856037 -0.1298210681 -1.0035642772 0.0019747261 -0.1357759025 -1.0055009238 -0.0659206555 -0.1415950189 -1.0041431557 0.0439659844 -0.1452311355 -1.0049431570 -0.0239423432 -0.1508180222 -1.0045970643 0.0852962187 -0.1537485865 -1.0006838225 0.0179573242 -0.1600728704 -1.0039924167 -0.0497791163 -0.1660781830 -1.0035800981 0.0598148258 -0.1697659376 -1.0033014429 -0.0078931527 -0.1750991010 -1.0029323690 -0.0754875006 -0.1814191025 -1.0020279114 0.0338133689 -0.1845751300 -1.0022131538 -0.0336157541 -0.1903560511 -1.0017555755 0.0755071788 -0.1945047530 -1.0012638353 0.0080147053 -0.1995757477 -1.0009947334 -0.0592380771 -0.2058892752 -1.0004521056 0.0495213559 -0.2093277310 -1.0001491584
        </DataArray>
      </Points>
      <Cells>
        <DataArray type="Int32" Name="connectivity" format="ascii">
 0 1 2 3 4 5 6 7 8 9 10 11 12 13 14 15 16 17 18 19 20 21 22 23 24 25 26 27 28 29 30 31 32 33 34 35 36 37 38 39 40 41 42 43 44 45 46 47 48 49 50 51 52 53 54 55 56 57 58 59 60 61 62 63 64 65 66 67 68 69 70 71 72 73 74 75 76 77 78 79 80 81 82 83 84 85 86
        </DataArray>
        <DataArray type="Int32" Name="offsets" format="ascii">
 1 2 3 4 5 6 7 8 9 10 11 12 13 14 15 16 17 18 19 20 21 22 23 24 25 26 27 28 29 30 31 32 33 34 35 36 37 38 39 40 41 42 43 44 45 46 47 48 49 50 51 52 53 54 55 56 57 58 59 60 61 62 63 64 65 66 67 68 69 70 71 72 73 74 75 76 77 78 79 80 81 82 83 84 85 86 87
        </DataArray>
        <DataArray type="UInt8" Name="types" format="ascii">
 1 1 1 1 1 1 1 1 1 1 1 1 1 1 1 1 1 1 1 1 1 1 1 1 1 1 1 1 1 1 1 1 1 1 1 1 1 1 1 1 1 1 1 1 1 1 1 1 1 1 1 1 1 1 1 1 1 1 1 1 1 1 1 1 1 1 1 1 1 1 1 1 1 1 1 1 1 1 1 1 1 1 1 1 1 1 1
        </DataArray>
      </Cells>
      <PointData Scalars="overlap">
        <DataArray type="Float32" Name="overlap" format="ascii">
 0.0002977223 0.0012795226 0.0018291993 0.0029070244 0.0036160917 0.0043723628 0.0052748515 0.0029462455 0.0066563105 0.0074091395 0.0078830823 0.0087081359 0.0034582459 0.0098659510 0.0105435138 0.0066532352 0.0116059886 0.0088395695 0.0124955418 0.0131365366 0.0008063618 0.0139898360 0.0130738539 0.0097347079 0.0152181203 0.0056552654 0.0155507082 0.0160376823 0.0045560580 0.0168043962 0.0106136086 0.0123658955 0.0175424412 0.0020346682 0.0171188084 0.0144202915 0.0078881458 0.0183499059 0.0076812377 0.0145501203 0.0170373465 0.0022854312 0.0180982053 0.0122048507 0.0107903445 0.0184382114 0.0043197560 0.0162792186 0.0155610169 0.0058771495 0.0182104708 0.0095432769 0.0132517662 0.0176384164 0.0005415315 0.0172774824 0.0136256416 0.0090464052 0.0164914204 0.0064456263 0.0152216408 0.0154908124 0.0037047586 0.0147946773 0.0112352459 0.0117678944 0.0135000388 0.0029233650 0.0125991089 0.0119987981 0.0071285545 0.0110018476 0.0082863114 0.0098863140 0.0091941286 0.0013676449 0.0079848333 0.0071601961 0.0066028858 0.0058647380 0.0040558229 0.0044263076 0.0035111510 0.0025276705 0.0019894668 0.0009042111 0.0002983168
        </DataArray>
        <DataArray type="Float32" Name="contact normal" NumberOfComponents="3" format="ascii">
 0.0000000000 0.0000000000 1.0000000000 0.0000000000 0.0000000000 1.0000000000 0.0000000000 0.0000000000 1.0000000000 0.0000000000 0.0000000000 1.0000000000 0.0000000000 0.0000000000 1.0000000000 0.0000000000 0.0000000000 1.0000000000 0.0000000000 0.0000000000 1.0000000000 0.0000000000 0.0000000000 1.0000000000 0.0000000000 0.0000000000 1.0000000000 0.0000000000 0.0000000000 1.0000000000 0.0000000000 0.0000000000 1.0000000000 0.0000000000 0.0000000000 1.0000000000 0.0000000000 0.0000000000 1.0000000000 0.0000000000 0.0000000000 1.0000000000 0.0000000000 0.0000000000 1.0000000000 0.0000000000 0.0000000000 1.0000000000 0.0000000000 0.0000000000 1.0000000000 0.0000000000 0.0000000000 1.0000000000 0.0000000000 0.0000000000 1.0000000000 0.0000000000 0.0000000000 1.0000000000 0.0000000000 0.0000000000 1.0000000000 0.0000000000 0.0000000000 1.0000000000 0.0000000000 0.0000000000 1.0000000000 0.0000000000 0.0000000000 1.0000000000 0.0000000000 0.0000000000 1.0000000000 0.0000000000 0.0000000000 1.0000000000 0.0000000000 0.0000000000 1.0000000000 0.0000000000 0.0000000000 1.0000000000 0.0000000000 0.0000000000 1.0000000000 0.0000000000 0.0000000000 1.0000000000 0.0000000000 0.0000000000 1.0000000000 0.0000000000 0.0000000000 1.0000000000 0.0000000000 0.0000000000 1.0000000000 0.0000000000 0.0000000000 1.0000000000 0.0000000000 0.0000000000 1.0000000000 0.0000000000 0.0000000000 1.0000000000 0.0000000000 0.0000000000 1.0000000000 0.0000000000 0.0000000000 1.0000000000 0.0000000000 0.0000000000 1.0000000000 0.0000000000 0.0000000000 1.0000000000 0.0000000000 0.0000000000 1.0000000000 0.0000000000 0.0000000000 1.0000000000 0.0000000000 0.0000000000 1.0000000000 0.0000000000 0.0000000000 1.0000000000 0.0000000000 0.0000000000 1.0000000000 0.0000000000 0.0000000000 1.0000000000 0.0000000000 0.0000000000 1.0000000000 0.0000000000 0.0000000000 1.0000000000 0.0000000000 0.0000000000 1.0000000000 0.0000000000 0.0000000000 1.0000000000 0.0000000000 0.0000000000 1.0000000000 0.0000000000 0.0000000000 1.0000000000 0.0000000000 0.0000000000 1.0000000000 0.0000000000 0.0000000000 1.0000000000 0.0000000000 0.0000000000 1.0000000000 0.0000000000 0.0000000000 1.0000000000 0.0000000000 0.0000000000 1.0000000000 0.0000000000 0.0000000000 1.0000000000 0.0000000000 0.0000000000 1.0000000000 0.0000000000 0.0000000000 1.0000000000 0.0000000000 0.0000000000 1.0000000000 0.0000000000 0.0000000000 1.0000000000 0.0000000000 0.0000000000 1.0000000000 0.0000000000 0.0000000000 1.0000000000 0.0000000000 0.0000000000 1.0000000000 0.0000000000 0.0000000000 1.0000000000 0.0000000000 0.0000000000 1.0000000000 0.0000000000 0.0000000000 1.0000000000 0.0000000000 0.0000000000 1.0000000000 0.0000000000 0.0000000000 1.0000000000 0.0000000000 0.0000000000 1.0000000000 0.0000000000 0.0000000000 1.0000000000 0.0000000000 0.0000000000 1.0000000000 0.0000000000 0.0000000000 1.0000000000 0.0000000000 0.0000000000 1.0000000000 0.0000000000 0.0000000000 1.0000000000 0.0000000000 0.0000000000 1.0000000000 0.0000000000 0.0000000000 1.0000000000 0.0000000000 0.0000000000 1.0000000000 0.0000000000 0.0000000000 1.0000000000 0.0000000000 0.0000000000 1.0000000000 0.0000000000 0.0000000000 1.0000000000 0.0000000000 0.0000000000 1.0000000000 0.0000000000 0.0000000000 1.0000000000 0.0000000000 0.0000000000 1.0000000000 0.0000000000 0.0000000000 1.0000000000 0.0000000000 0.0000000000 1.0000000000
        </DataArray>
        <DataArray type="Float32" Name="contact force" NumberOfComponents="3" format="ascii">
 0.0097862450 -0.0001509379 178.6333807590 0.0366219723 0.0020792622 767.7135520709 0.0463001704 0.0036720518 1097.5195985579 0.0539606898 0.0048175404 1744.2146182515 0.0561301071 0.0027096122 2169.6550161484 0.0607760742 -0.0014870407 2623.4177028163 0.0681318700 -0.0082852908 3164.9109254529 0.0540684587 0.0047832410 1767.7473007410 0.0794321052 -0.0204312742 3993.7862701441 0.0835944050 -0.0254231339 4445.4837239169 0.0858712793 -0.0279957829 4729.8494052104 0.0897861355 -0.0318020595 5224.8815653399 0.0555152051 0.0033871588 2074.9475626944 0.0969743600 -0.0364202250 5919.5705990100 0.1013652144 -0.0388230868 6326.1082870843 0.0794352195 -0.0204260114 3991.9411343935 0.1095844420 -0.0413685048 6963.5931787540 0.0905658460 -0.0324168625 5303.7417111021 0.1173846645 -0.0408979377 7497.3250871175 0.1230062279 -0.0398231618 7881.9219651600 0.0249442504 0.0006097159 483.8170958436 0.1310980644 -0.0381773142 8393.9016122921 0.1223509270 -0.0399549961 7844.3123642200 0.0961764684 -0.0359701482 5840.8247459180 0.1438973489 -0.0355172085 9130.8721662017 0.0713961582 -0.0117548426 3393.1592607707 0.1473196732 -0.0346805399 9330.4249039418 0.1523110083 -0.0334751642 9622.6093844175 0.0622937697 -0.0027380735 2733.6348009665 0.1603939618 -0.0316878210 10082.6377330274 0.1018690874 -0.0390744147 6368.1651505253 0.1161036786 -0.0410987362 7419.5373297424 0.1678986737 -0.0303199821 10525.4647322910 0.0487070194 0.0040660300 1220.8009006129 0.1636115174 -0.0310616936 10271.2850538219 0.1356575099 -0.0372732054 8652.1749114351 0.0858838366 -0.0279945709 4732.8874975130 0.1762451814 -0.0289560422 11009.9435331154 0.0849159270 -0.0269234578 4608.7426057679 0.1370074524 -0.0369982439 8730.0721624373 0.1628628678 -0.0312087579 10222.4079262630 0.0510518425 0.0044812747 1371.2587470151 0.1736635416 -0.0293761549 10858.9232097335 0.1148172087 -0.0412815941 7322.9104471873 0.1031570137 -0.0396670934 6474.2066810641 -0.1889249672 0.1509845269 11062.9268140058 0.0604526510 -0.0012197713 2591.8535979686 0.1550340362 -0.0328490998 9767.5311778595 0.1475250164 -0.0346431207 9336.6101556475 0.0733523506 -0.0138361520 3526.2896904549 0.1747782383 -0.0291968941 10926.2824993164 0.0949208587 -0.0352771711 5725.9661221440 0.1240241914 -0.0396225563 7951.0597472759 0.1690276581 -0.0301361063 10583.0498170226 0.0172109009 0.0000598947 324.9189108573 0.1653111075 -0.0307607692 10366.4894155907 0.1274703451 -0.0389534176 8175.3849833880 0.0918223930 -0.0333154258 5427.8431189464 0.1571615224 -0.0323850240 9894.8522203775 0.0779418153 -0.0187726098 3867.3757806872 0.1439203969 -0.0355112332 9132.9844833926 0.1467713630 -0.0348306112 9294.4874448180 0.0565414784 0.0023057649 2222.8551507085 0.1395249722 -0.0364978947 8876.8063890876 0.1064618470 -0.0408479846 6741.1475624365 0.1110127988 -0.0414512995 7060.7366574910 0.1262476480 -0.0391996913 8100.0233025032 0.0540132944 0.0048016086 1754.0190115710 0.1182140373 -0.0407621988 7559.4653219747 0.1129069852 -0.0414446560 7199.2788794831 0.0821914123 -0.0237022897 4277.1326929016 0.1046411602 -0.0402760161 6601.1085396545 0.0877170964 -0.0299633354 4971.7868689960 0.0971209576 -0.0364823258 5931.7883972674 0.0926895729 -0.0339122379 5516.4771695801 0.0384219113 0.0023565995 820.5869625189 0.0863765334 -0.0285296994 4790.8999923044 0.0823686475 -0.0239253810 4296.1176877237 0.0791280313 -0.0200503071 3961.7314949174 0.0732264032 -0.0136945998 3518.8428160086 0.0585925350 0.0003437829 2433.4937353067 0.0612598940 -0.0018627899 2655.7845761460 0.0556905850 0.0032157207 2106.6905791301 0.0525592866 0.0047507103 1516.6023262896 0.0483261993 0.0040037275 1193.6800747322 0.0275574016 0.0008666774 542.5266845261 0.0097896834 -0.0001507194 178.9900699632
        </DataArray>
        <DataArray type="Float32" Name="contact torque" NumberOfComponents="3" format="ascii">
 0.0000000000 0.0000000000 0.0000000000 0.0000000000 0.0000000000 0.0000000000 0.0000000000 0.0000000000 0.0000000000 0.0000000000 0.0000000000 0.0000000000 0.0000000000 0.0000000000 0.0000000000 0.0000000000 0.0000000000 0.0000000000 0.0000000000 0.0000000000 0.0000000000 0.0000000000 0.0000000000 0.0000000000 0.0000000000 0.0000000000 0.0000000000 0.0000000000 0.0000000000 0.0000000000 0.0000000000 0.0000000000 0.0000000000 0.0000000000 0.0000000000 0.0000000000 0.0000000000 0.0000000000 0.0000000000 0.0000000000 0.0000000000 0.0000000000 0.0000000000 0.0000000000 0.0000000000 0.0000000000 0.0000000000 0.0000000000 0.0000000000 0.0000000000 0.0000000000 0.0000000000 0.0000000000 0.0000000000 0.0000000000 0.0000000000 0.0000000000 0.0000000000 0.0000000000 0.0000000000 0.0000000000 0.0000000000 0.0000000000 0.0000000000 0.0000000000 0.0000000000 0.0000000000 0.0000000000 0.0000000000 0.0000000000 0.0000000000 0.0000000000 0.0000000000 0.0000000000 0.0000000000 0.0000000000 0.0000000000 0.0000000000 0.0000000000 0.0000000000 0.0000000000 0.0000000000 0.0000000000 0.0000000000 0.0000000000 0.0000000000 0.0000000000 0.0000000000 0.0000000000 0.0000000000 0.0000000000 0.0000000000 0.0000000000 0.0000000000 0.0000000000 0.0000000000 0.0000000000 0.0000000000 0.0000000000 0.0000000000 0.0000000000 0.0000000000 0.0000000000 0.0000000000 0.0000000000 0.0000000000 0.0000000000 0.0000000000 0.0000000000 0.0000000000 0.0000000000 0.0000000000 0.0000000000 0.0000000000 0.0000000000 0.0000000000 0.0000000000 0.0000000000 0.0000000000 0.0000000000 0.0000000000 0.0000000000 0.0000000000 0.0000000000 0.0000000000 0.0000000000 0.0000000000 0.0000000000 0.0000000000 0.0000000000 0.0000000000 0.0000000000 0.0000000000 0.0000000000 0.0000000000 0.0000000000 0.0000000000 0.0000000000 0.0000000000 0.0000000000 0.0000000000 0.0000000000 0.0000000000 0.0000000000 0.0000000000 0.0000000000 0.0000000000 0.0000000000 0.0000000000 0.0000000000 0.0000000000 0.0000000000 0.0000000000 0.0000000000 0.0000000000 0.0000000000 0.0000000000 0.0000000000 0.0000000000 0.0000000000 0.0000000000 0.0000000000 0.0000000000 0.0000000000 0.0000000000 0.0000000000 0.0000000000 0.0000000000 0.0000000000 0.0000000000 0.0000000000 0.0000000000 0.0000000000 0.0000000000 0.0000000000 0.0000000000 0.0000000000 0.0000000000 0.0000000000 0.0000000000 0.0000000000 0.0000000000 0.0000000000 0.0000000000 0.0000000000 0.0000000000 0.0000000000 0.0000000000 0.0000000000 0.0000000000 0.0000000000 0.0000000000 0.0000000000 0.0000000000 0.0000000000 0.0000000000 0.0000000000 0.0000000000 0.0000000000 0.0000000000 0.0000000000 0.0000000000 0.0000000000 0.0000000000 0.0000000000 0.0000000000 0.0000000000 0.0000000000 0.0000000000 0.0000000000 0.0000000000 0.0000000000 0.0000000000 0.0000000000 0.0000000000 0.0000000000 0.0000000000 0.0000000000 0.0000000000 0.0000000000 0.0000000000 0.0000000000 0.0000000000 0.0000000000 0.0000000000 0.0000000000 0.0000000000 0.0000000000 0.0000000000 0.0000000000 0.0000000000 0.0000000000 0.0000000000 0.0000000000 0.0000000000 0.0000000000 0.0000000000 0.0000000000 0.0000000000 0.0000000000 0.0000000000 0.0000000000 0.0000000000 0.0000000000 0.0000000000 0.0000000000 0.0000000000 0.0000000000 0.0000000000 0.0000000000 0.0000000000 0.0000000000 0.0000000000 0.0000000000 0.0000000000 0.0000000000 0.0000000000 0.0000000000 0.0000000000 0.0000000000 0.0000000000
        </DataArray>
        <DataArray type="Float32" Name="sliding spring" NumberOfComponents="3" format="ascii">
 -0.0000000544 0.0000000008 0.0000000000 -0.0000002035 -0.0000000116 0.0000000000 -0.0000002572 -0.0000000204 0.0000000000 -0.0000002998 -0.0000000268 0.0000000000 -0.0000003118 -0.0000000151 0.0000000000 -0.0000003376 0.0000000083 0.0000000000 -0.0000003785 0.0000000460 0.0000000000 -0.0000003004 -0.0000000266 0.0000000000 -0.0000004413 0.0000001135 0.0000000000 -0.0000004644 0.0000001412 0.0000000000 -0.0000004771 0.0000001555 0.0000000000 -0.0000004988 0.0000001767 0.0000000000 -0.0000003084 -0.0000000188 0.0000000000 -0.0000005387 0.0000002023 0.0000000000 -0.0000005631 0.0000002157 0.0000000000 -0.0000004413 0.0000001135 0.0000000000 -0.0000006088 0.0000002298 0.0000000000 -0.0000005031 0.0000001801 0.0000000000 -0.0000006521 0.0000002272 0.0000000000 -0.0000006834 0.0000002212 0.0000000000 -0.0000001386 -0.0000000034 0.0000000000 -0.0000007283 0.0000002121 0.0000000000 -0.0000006797 0.0000002220 0.0000000000 -0.0000005343 0.0000001998 0.0000000000 -0.0000007994 0.0000001973 0.0000000000 -0.0000003966 0.0000000653 0.0000000000 -0.0000008184 0.0000001927 0.0000000000 -0.0000008462 0.0000001860 0.0000000000 -0.0000003461 0.0000000152 0.0000000000 -0.0000008911 0.0000001760 0.0000000000 -0.0000005659 0.0000002171 0.0000000000 -0.0000006450 0.0000002283 0.0000000000 -0.0000009328 0.0000001684 0.0000000000 -0.0000002706 -0.0000000226 0.0000000000 -0.0000009090 0.0000001726 0.0000000000 -0.0000007537 0.0000002071 0.0000000000 -0.0000004771 0.0000001555 0.0000000000 -0.0000009791 0.0000001609 0.0000000000 -0.0000004718 0.0000001496 0.0000000000 -0.0000007612 0.0000002055 0.0000000000 -0.0000009048 0.0000001734 0.0000000000 -0.0000002836 -0.0000000249 0.0000000000 -0.0000009648 0.0000001632 0.0000000000 -0.0000006379 0.0000002293 0.0000000000 -0.0000005731 0.0000002204 0.0000000000 0.0000010496 -0.0000008388 0.0000000000 -0.0000003358 0.0000000068 0.0000000000 -0.0000008613 0.0000001825 0.0000000000 -0.0000008196 0.0000001925 0.0000000000 -0.0000004075 0.0000000769 0.0000000000 -0.0000009710 0.0000001622 0.0000000000 -0.0000005273 0.0000001960 0.0000000000 -0.0000006890 0.0000002201 0.0000000000 -0.0000009390 0.0000001674 0.0000000000 -0.0000000956 -0.0000000003 0.0000000000 -0.0000009184 0.0000001709 0.0000000000 -0.0000007082 0.0000002164 0.0000000000 -0.0000005101 0.0000001851 0.0000000000 -0.0000008731 0.0000001799 0.0000000000 -0.0000004330 0.0000001043 0.0000000000 -0.0000007996 0.0000001973 0.0000000000 -0.0000008154 0.0000001935 0.0000000000 -0.0000003141 -0.0000000128 0.0000000000 -0.0000007751 0.0000002028 0.0000000000 -0.0000005915 0.0000002269 0.0000000000 -0.0000006167 0.0000002303 0.0000000000 -0.0000007014 0.0000002178 0.0000000000 -0.0000003001 -0.0000000267 0.0000000000 -0.0000006567 0.0000002265 0.0000000000 -0.0000006273 0.0000002302 0.0000000000 -0.0000004566 0.0000001317 0.0000000000 -0.0000005813 0.0000002238 0.0000000000 -0.0000004873 0.0000001665 0.0000000000 -0.0000005396 0.0000002027 0.0000000000 -0.0000005149 0.0000001884 0.0000000000 -0.0000002135 -0.0000000131 0.0000000000 -0.0000004799 0.0000001585 0.0000000000 -0.0000004576 0.0000001329 0.0000000000 -0.0000004396 0.0000001114 0.0000000000 -0.0000004068 0.0000000761 0.0000000000 -0.0000003255 -0.0000000019 0.0000000000 -0.0000003403 0.0000000103 0.0000000000 -0.0000003094 -0.0000000179 0.0000000000 -0.0000002920 -0.0000000264 0.0000000000 -0.0000002685 -0.0000000222 0.0000000000 -0.0000001531 -0.0000000048 0.0000000000 -0.0000000544 0.0000000008 0.0000000000
        </DataArray>
      </PointData>
    </Piece>
  </UnstructuredGrid>
</VTKFile>
